 Entering Gaussian System, Link 0=g16
 Initial command:
 /ihome/crc/build/gaussian/c01/avx2/tar/g16/l1.exe "/scratch/slurm-5176203/Gau-167764.inp" -scrdir="/scratch/slurm-5176203/"
 Entering Link 1 = /ihome/crc/build/gaussian/c01/avx2/tar/g16/l1.exe PID=    167765.
  
 Copyright (c) 1988-2019, Gaussian, Inc.  All Rights Reserved.
  
 This is part of the Gaussian(R) 16 program.  It is based on
 the Gaussian(R) 09 system (copyright 2009, Gaussian, Inc.),
 the Gaussian(R) 03 system (copyright 2003, Gaussian, Inc.),
 the Gaussian(R) 98 system (copyright 1998, Gaussian, Inc.),
 the Gaussian(R) 94 system (copyright 1995, Gaussian, Inc.),
 the Gaussian 92(TM) system (copyright 1992, Gaussian, Inc.),
 the Gaussian 90(TM) system (copyright 1990, Gaussian, Inc.),
 the Gaussian 88(TM) system (copyright 1988, Gaussian, Inc.),
 the Gaussian 86(TM) system (copyright 1986, Carnegie Mellon
 University), and the Gaussian 82(TM) system (copyright 1983,
 Carnegie Mellon University). Gaussian is a federally registered
 trademark of Gaussian, Inc.
  
 This software contains proprietary and confidential information,
 including trade secrets, belonging to Gaussian, Inc.
  
 This software is provided under written license and may be
 used, copied, transmitted, or stored only in accord with that
 written license.
  
 The following legend is applicable only to US Government
 contracts under FAR:
  
                    RESTRICTED RIGHTS LEGEND
  
 Use, reproduction and disclosure by the US Government is
 subject to restrictions as set forth in subparagraphs (a)
 and (c) of the Commercial Computer Software - Restricted
 Rights clause in FAR 52.227-19.
  
 Gaussian, Inc.
 340 Quinnipiac St., Bldg. 40, Wallingford CT 06492
  
  
 ---------------------------------------------------------------
 Warning -- This program may not be used in any manner that
 competes with the business of Gaussian, Inc. or will provide
 assistance to any competitor of Gaussian, Inc.  The licensee
 of this program is prohibited from giving any competitor of
 Gaussian, Inc. access to this program.  By using this program,
 the user acknowledges that Gaussian, Inc. is engaged in the
 business of creating and licensing software in the field of
 computational chemistry and represents and warrants to the
 licensee that it is not a competitor of Gaussian, Inc. and that
 it will not use this program in any manner prohibited above.
 ---------------------------------------------------------------
  

 Cite this work as:
 Gaussian 16, Revision C.01,
 M. J. Frisch, G. W. Trucks, H. B. Schlegel, G. E. Scuseria, 
 M. A. Robb, J. R. Cheeseman, G. Scalmani, V. Barone, 
 G. A. Petersson, H. Nakatsuji, X. Li, M. Caricato, A. V. Marenich, 
 J. Bloino, B. G. Janesko, R. Gomperts, B. Mennucci, H. P. Hratchian, 
 J. V. Ortiz, A. F. Izmaylov, J. L. Sonnenberg, D. Williams-Young, 
 F. Ding, F. Lipparini, F. Egidi, J. Goings, B. Peng, A. Petrone, 
 T. Henderson, D. Ranasinghe, V. G. Zakrzewski, J. Gao, N. Rega, 
 G. Zheng, W. Liang, M. Hada, M. Ehara, K. Toyota, R. Fukuda, 
 J. Hasegawa, M. Ishida, T. Nakajima, Y. Honda, O. Kitao, H. Nakai, 
 T. Vreven, K. Throssell, J. A. Montgomery, Jr., J. E. Peralta, 
 F. Ogliaro, M. J. Bearpark, J. J. Heyd, E. N. Brothers, K. N. Kudin, 
 V. N. Staroverov, T. A. Keith, R. Kobayashi, J. Normand, 
 K. Raghavachari, A. P. Rendell, J. C. Burant, S. S. Iyengar, 
 J. Tomasi, M. Cossi, J. M. Millam, M. Klene, C. Adamo, R. Cammi, 
 J. W. Ochterski, R. L. Martin, K. Morokuma, O. Farkas, 
 J. B. Foresman, and D. J. Fox, Gaussian, Inc., Wallingford CT, 2019.
 
 ******************************************
 Gaussian 16:  ES64L-G16RevC.01  3-Jul-2019
                 6-Feb-2022 
 ******************************************
 --------------------------------------------------
 # SP ROHF/CBSB3 Pop=(Full) scf=tight IOp(6/27=122)
 --------------------------------------------------
 1/38=1,172=1/1;
 2/12=2,17=6,18=5,40=1/2;
 3/5=12,11=2,25=1,30=1,116=101/1,2,3;
 4//1;
 5/5=2,32=2,38=5/2;
 6/7=3,27=122,28=1/1;
 99/5=1,9=1/99;
 ---
 CH4
 ---
 Symbolic Z-matrix:
 Charge =  0 Multiplicity = 1
 C
 H                    1    R1
 H                    1    R2       2    A2
 H                    1    R3       2    A3       3    D3       0
 H                    1    R4       2    A4       3    D4       0
       Variables:
  R1                    1.0883                   
  R2                    1.0883                   
  A2                  109.4712                   
  R3                    1.0883                   
  A3                  109.4712                   
  D3                  240.                       
  R4                    1.0883                   
  A4                  109.4712                   
  D4                  120.                       
 
     3 tetrahedral angles replaced.
    3 tetrahedral angles replaced.
                          Input orientation:                          
 ---------------------------------------------------------------------
 Center     Atomic      Atomic             Coordinates (Angstroms)
 Number     Number       Type             X           Y           Z
 ---------------------------------------------------------------------
      1          6           0        0.000000    0.000000    0.000000
      2          1           0        0.000000    0.000000    1.088300
      3          1           0        1.026059    0.000000   -0.362767
      4          1           0       -0.513030    0.888593   -0.362767
      5          1           0       -0.513030   -0.888593   -0.362767
 ---------------------------------------------------------------------
                    Distance matrix (angstroms):
                    1          2          3          4          5
     1  C    0.000000
     2  H    1.088300   0.000000
     3  H    1.088300   1.777186   0.000000
     4  H    1.088300   1.777186   1.777186   0.000000
     5  H    1.088300   1.777186   1.777186   1.777186   0.000000
 Stoichiometry    CH4
 Framework group  TD[O(C),4C3(H)]
 Deg. of freedom     1
 Full point group                 TD      NOp  24
 Largest Abelian subgroup         D2      NOp   4
 Largest concise Abelian subgroup D2      NOp   4
                         Standard orientation:                         
 ---------------------------------------------------------------------
 Center     Atomic      Atomic             Coordinates (Angstroms)
 Number     Number       Type             X           Y           Z
 ---------------------------------------------------------------------
      1          6           0        0.000000    0.000000    0.000000
      2          1           0        0.628330    0.628330    0.628330
      3          1           0       -0.628330   -0.628330    0.628330
      4          1           0        0.628330   -0.628330   -0.628330
      5          1           0       -0.628330    0.628330   -0.628330
 ---------------------------------------------------------------------
 Rotational constants (GHZ):         158.7691303         158.7691303         158.7691303
 Standard basis: CBSB3 (5D, 7F)
 There are    22 symmetry adapted cartesian basis functions of A   symmetry.
 There are    19 symmetry adapted cartesian basis functions of B1  symmetry.
 There are    19 symmetry adapted cartesian basis functions of B2  symmetry.
 There are    19 symmetry adapted cartesian basis functions of B3  symmetry.
 There are    20 symmetry adapted basis functions of A   symmetry.
 There are    18 symmetry adapted basis functions of B1  symmetry.
 There are    18 symmetry adapted basis functions of B2  symmetry.
 There are    18 symmetry adapted basis functions of B3  symmetry.
    74 basis functions,   100 primitive gaussians,    79 cartesian basis functions
     5 alpha electrons        5 beta electrons
       nuclear repulsion energy        13.4563762634 Hartrees.
 NAtoms=    5 NActive=    5 NUniq=    2 SFac= 4.00D+00 NAtFMM=   60 NAOKFM=F Big=F
 Integral buffers will be    131072 words long.
 Raffenetti 2 integral format.
 Two-electron integral symmetry is turned on.
 One-electron integrals computed using PRISM.
 NBasis=    74 RedAO= T EigKep=  1.16D-03  NBF=    20    18    18    18
 NBsUse=    74 1.00D-06 EigRej= -1.00D+00 NBFU=    20    18    18    18
 ExpMin= 3.60D-02 ExpMax= 4.56D+03 ExpMxC= 6.82D+02 IAcc=3 IRadAn=         5 AccDes= 0.00D+00
 Harris functional with IExCor=  205 and IRadAn=       5 diagonalized for initial guess.
 HarFok:  IExCor=  205 AccDes= 0.00D+00 IRadAn=         5 IDoV= 1 UseB2=F ITyADJ=14
 ICtDFT=  3500011 ScaDFX=  1.000000  1.000000  1.000000  1.000000
 FoFCou: FMM=F IPFlag=           0 FMFlag=      100000 FMFlg1=           0
         NFxFlg=           0 DoJE=T BraDBF=F KetDBF=T FulRan=T
         wScrn=  0.000000 ICntrl=       500 IOpCl=  0 I1Cent=   200000004 NGrid=           0
         NMat0=    1 NMatS0=      1 NMatT0=    0 NMatD0=    1 NMtDS0=    0 NMtDT0=    0
 Petite list used in FoFCou.
 Initial guess orbital symmetries:
       Occupied  (A1) (A1) (T2) (T2) (T2)
       Virtual   (A1) (T2) (T2) (T2) (T2) (T2) (T2) (A1) (T2) (T2)
                 (T2) (A1) (T2) (T2) (T2) (E) (E) (T2) (T2) (T2)
                 (A1) (A1) (T1) (T1) (T1) (T2) (T2) (T2) (T2) (T2)
                 (T2) (E) (E) (T2) (T2) (T2) (A1) (T2) (T2) (T2)
                 (A1) (T1) (T1) (T1) (T2) (T2) (T2) (E) (E) (T2)
                 (T2) (T2) (T2) (T2) (T2) (A1) (E) (E) (T2) (T2)
                 (T2) (T1) (T1) (T1) (A1) (T2) (T2) (T2) (A1)
 The electronic state of the initial guess is 1-A1.
 Keep R1 and R2 ints in memory in symmetry-blocked form, NReq=5830596.
 Requested convergence on RMS density matrix=1.00D-08 within 128 cycles.
 Requested convergence on MAX density matrix=1.00D-06.
 Requested convergence on             energy=1.00D-06.
 No special actions if energy rises.
 SCF Done:  E(ROHF) =  -40.2122548774     A.U. after    9 cycles
            NFock=  9  Conv=0.74D-09     -V/T= 2.0009
 <Sx>= 0.0000 <Sy>= 0.0000 <Sz>= 0.0000 <S**2>= 0.0000 S= 0.0000
 <L.S>=  0.00000000000    
 Annihilation of the first spin contaminant:
 S**2 before annihilation    -0.0000,   after    -0.0000

 **********************************************************************

            Population analysis using the SCF Density.

 **********************************************************************

 Orbital symmetries:
       Occupied  (A1) (A1) (T2) (T2) (T2)
       Virtual   (A1) (T2) (T2) (T2) (T2) (T2) (T2) (A1) (T2) (T2)
                 (T2) (A1) (T2) (T2) (T2) (E) (E) (T2) (T2) (T2)
                 (A1) (A1) (T1) (T1) (T1) (T2) (T2) (T2) (T2) (T2)
                 (T2) (E) (E) (T2) (T2) (T2) (A1) (T2) (T2) (T2)
                 (A1) (T1) (T1) (T1) (T2) (T2) (T2) (E) (E) (T2)
                 (T2) (T2) (T2) (T2) (T2) (A1) (E) (E) (T2) (T2)
                 (T2) (T1) (T1) (T1) (A1) (T2) (T2) (T2) (A1)
 The electronic state is 1-A1.
 Alpha  occ. eigenvalues --  -11.20488  -0.94312  -0.54510  -0.54510  -0.54510
 Alpha virt. eigenvalues --    0.04182   0.07718   0.07718   0.07718   0.15227
 Alpha virt. eigenvalues --    0.15227   0.15227   0.18899   0.30015   0.30015
 Alpha virt. eigenvalues --    0.30015   0.36513   0.54746   0.54746   0.54746
 Alpha virt. eigenvalues --    0.67201   0.67201   0.75123   0.75123   0.75123
 Alpha virt. eigenvalues --    0.83277   0.86508   1.05973   1.05973   1.05973
 Alpha virt. eigenvalues --    1.24570   1.24570   1.24570   1.34742   1.34742
 Alpha virt. eigenvalues --    1.34742   1.59073   1.59073   1.68495   1.68495
 Alpha virt. eigenvalues --    1.68495   1.82678   2.64452   2.64452   2.64452
 Alpha virt. eigenvalues --    2.72911   3.27069   3.27069   3.27069   3.48195
 Alpha virt. eigenvalues --    3.48195   3.48195   3.59007   3.59007   3.68353
 Alpha virt. eigenvalues --    3.68353   3.68353   4.24302   4.24302   4.24302
 Alpha virt. eigenvalues --    4.33068   4.45419   4.45419   4.56512   4.56512
 Alpha virt. eigenvalues --    4.56512   4.79887   4.79887   4.79887   5.25558
 Alpha virt. eigenvalues --    6.06493   6.06493   6.06493  25.47605
     Molecular Orbital Coefficients:
                           1         2         3         4         5
                        (A1)--O   (A1)--O   (T2)--O   (T2)--O   (T2)--O
     Eigenvalues --   -11.20488  -0.94312  -0.54510  -0.54510  -0.54510
   1 1   C  1S          0.56331  -0.10282   0.00000   0.00000   0.00000
   2        2S          0.46644  -0.17073   0.00000   0.00000   0.00000
   3        2PX         0.00000   0.00000   0.00000   0.00000   0.19145
   4        2PY         0.00000   0.00000   0.00000   0.19145   0.00000
   5        2PZ         0.00000   0.00000   0.19145   0.00000   0.00000
   6        3S          0.00497   0.42230   0.00000   0.00000   0.00000
   7        3PX         0.00000   0.00000   0.00000   0.00000   0.28923
   8        3PY         0.00000   0.00000   0.00000   0.28923   0.00000
   9        3PZ         0.00000   0.00000   0.28923   0.00000   0.00000
  10        4S          0.00259   0.24353   0.00000   0.00000   0.00000
  11        4PX         0.00000   0.00000   0.00000   0.00000   0.18360
  12        4PY         0.00000   0.00000   0.00000   0.18360   0.00000
  13        4PZ         0.00000   0.00000   0.18360   0.00000   0.00000
  14        5S         -0.00036  -0.00568   0.00000   0.00000   0.00000
  15        5PX         0.00000   0.00000   0.00000   0.00000  -0.00548
  16        5PY         0.00000   0.00000   0.00000  -0.00548   0.00000
  17        5PZ         0.00000   0.00000  -0.00548   0.00000   0.00000
  18        6D 0        0.00000   0.00000   0.00000   0.00000   0.00000
  19        6D+1        0.00000   0.00000   0.00000   0.01877   0.00000
  20        6D-1        0.00000   0.00000   0.00000   0.00000   0.01877
  21        6D+2        0.00000   0.00000   0.00000   0.00000   0.00000
  22        6D-2        0.00000   0.00000   0.01877   0.00000   0.00000
  23        7D 0       -0.00000  -0.00000   0.00000   0.00000   0.00000
  24        7D+1        0.00000   0.00000   0.00000   0.01978   0.00000
  25        7D-1        0.00000   0.00000   0.00000   0.00000   0.01978
  26        7D+2        0.00000  -0.00000   0.00000   0.00000   0.00000
  27        7D-2        0.00000   0.00000   0.01978   0.00000   0.00000
  28        8F 0        0.00000   0.00000   0.00001   0.00000   0.00000
  29        8F+1        0.00000   0.00000   0.00000   0.00000  -0.00000
  30        8F-1        0.00000   0.00000   0.00000  -0.00000   0.00000
  31        8F+2        0.00000   0.00000   0.00000   0.00000   0.00000
  32        8F-2        0.00060   0.00727   0.00000   0.00000   0.00000
  33        8F+3        0.00000   0.00000   0.00000   0.00000   0.00001
  34        8F-3        0.00000   0.00000   0.00000  -0.00001   0.00000
  35 2   H  1S          0.00027   0.08172   0.10132   0.10132   0.10132
  36        2S         -0.00079   0.11252   0.16068   0.16068   0.16068
  37        3S         -0.00020   0.01195   0.07043   0.07043   0.07043
  38        4S          0.00009   0.00234   0.01227   0.01227   0.01227
  39        5PX         0.00003  -0.00418  -0.00581  -0.00581  -0.00132
  40        5PY         0.00003  -0.00418  -0.00581  -0.00132  -0.00581
  41        5PZ         0.00003  -0.00418  -0.00132  -0.00581  -0.00581
  42        6PX         0.00023  -0.00877  -0.00981  -0.00981   0.00097
  43        6PY         0.00023  -0.00877  -0.00981   0.00097  -0.00981
  44        6PZ         0.00023  -0.00877   0.00097  -0.00981  -0.00981
  45 3   H  1S          0.00027   0.08172   0.10132  -0.10132  -0.10132
  46        2S         -0.00079   0.11252   0.16068  -0.16068  -0.16068
  47        3S         -0.00020   0.01195   0.07043  -0.07043  -0.07043
  48        4S          0.00009   0.00234   0.01227  -0.01227  -0.01227
  49        5PX        -0.00003   0.00418   0.00581  -0.00581  -0.00132
  50        5PY        -0.00003   0.00418   0.00581  -0.00132  -0.00581
  51        5PZ         0.00003  -0.00418  -0.00132   0.00581   0.00581
  52        6PX        -0.00023   0.00877   0.00981  -0.00981   0.00097
  53        6PY        -0.00023   0.00877   0.00981   0.00097  -0.00981
  54        6PZ         0.00023  -0.00877   0.00097   0.00981   0.00981
  55 4   H  1S          0.00027   0.08172  -0.10132  -0.10132   0.10132
  56        2S         -0.00079   0.11252  -0.16068  -0.16068   0.16068
  57        3S         -0.00020   0.01195  -0.07043  -0.07043   0.07043
  58        4S          0.00009   0.00234  -0.01227  -0.01227   0.01227
  59        5PX         0.00003  -0.00418   0.00581   0.00581  -0.00132
  60        5PY        -0.00003   0.00418  -0.00581  -0.00132   0.00581
  61        5PZ        -0.00003   0.00418  -0.00132  -0.00581   0.00581
  62        6PX         0.00023  -0.00877   0.00981   0.00981   0.00097
  63        6PY        -0.00023   0.00877  -0.00981   0.00097   0.00981
  64        6PZ        -0.00023   0.00877   0.00097  -0.00981   0.00981
  65 5   H  1S          0.00027   0.08172  -0.10132   0.10132  -0.10132
  66        2S         -0.00079   0.11252  -0.16068   0.16068  -0.16068
  67        3S         -0.00020   0.01195  -0.07043   0.07043  -0.07043
  68        4S          0.00009   0.00234  -0.01227   0.01227  -0.01227
  69        5PX        -0.00003   0.00418  -0.00581   0.00581  -0.00132
  70        5PY         0.00003  -0.00418   0.00581  -0.00132   0.00581
  71        5PZ        -0.00003   0.00418  -0.00132   0.00581  -0.00581
  72        6PX        -0.00023   0.00877  -0.00981   0.00981   0.00097
  73        6PY         0.00023  -0.00877   0.00981   0.00097   0.00981
  74        6PZ        -0.00023   0.00877   0.00097   0.00981  -0.00981
                           6         7         8         9        10
                        (A1)--V   (T2)--V   (T2)--V   (T2)--V   (T2)--V
     Eigenvalues --     0.04182   0.07718   0.07718   0.07718   0.15227
   1 1   C  1S         -0.01875   0.00000   0.00000   0.00000   0.00000
   2        2S         -0.03210   0.00000   0.00000   0.00000   0.00000
   3        2PX         0.00000   0.00000  -0.03954   0.00000   0.00000
   4        2PY         0.00000   0.00000   0.00000  -0.03954   0.00000
   5        2PZ         0.00000  -0.03954   0.00000   0.00000  -0.00977
   6        3S          0.10070   0.00000   0.00000   0.00000   0.00000
   7        3PX         0.00000   0.00000  -0.01728   0.00000   0.00000
   8        3PY         0.00000   0.00000   0.00000  -0.01728   0.00000
   9        3PZ         0.00000  -0.01728   0.00000   0.00000  -0.05736
  10        4S         -0.02692   0.00000   0.00000   0.00000   0.00000
  11        4PX         0.00000   0.00000   0.35359   0.00000   0.00000
  12        4PY         0.00000   0.00000   0.00000   0.35359   0.00000
  13        4PZ         0.00000   0.35359   0.00000   0.00000  -0.33536
  14        5S          6.06152   0.00000   0.00000   0.00000   0.00000
  15        5PX         0.00000   0.00000  -1.38595   0.00000   0.00000
  16        5PY         0.00000   0.00000   0.00000  -1.38595   0.00000
  17        5PZ         0.00000  -1.38595   0.00000   0.00000   3.79410
  18        6D 0        0.00000   0.00000   0.00000   0.00000   0.00000
  19        6D+1        0.00000   0.00000   0.00000  -0.00307   0.00000
  20        6D-1        0.00000   0.00000  -0.00307   0.00000   0.00000
  21        6D+2        0.00000   0.00000   0.00000   0.00000   0.00000
  22        6D-2        0.00000  -0.00307   0.00000   0.00000  -0.00923
  23        7D 0       -0.00000   0.00000   0.00000   0.00000   0.00000
  24        7D+1        0.00000   0.00000   0.00000   0.06884   0.00000
  25        7D-1        0.00000   0.00000   0.06884   0.00000   0.00000
  26        7D+2       -0.00000   0.00000   0.00000   0.00000   0.00000
  27        7D-2        0.00000   0.06884   0.00000   0.00000  -0.10999
  28        8F 0        0.00000  -0.00227   0.00000   0.00000   0.00979
  29        8F+1        0.00000   0.00000   0.00139   0.00000   0.00000
  30        8F-1        0.00000   0.00000   0.00000   0.00139   0.00000
  31        8F+2        0.00000   0.00000   0.00000   0.00000  -0.00000
  32        8F-2       -0.00518   0.00000   0.00000   0.00000   0.00000
  33        8F+3        0.00000   0.00000  -0.00180   0.00000   0.00000
  34        8F-3        0.00000   0.00000   0.00000   0.00180   0.00000
  35 2   H  1S         -0.00093  -0.01006  -0.01006  -0.01006  -0.03089
  36        2S          0.06593  -0.08460  -0.08460  -0.08460   0.15353
  37        3S         -0.35209  -0.42078  -0.42078  -0.42078  -0.61675
  38        4S         -1.55872   2.85519   2.85519   2.85519  -3.05051
  39        5PX        -0.00204  -0.00064   0.00079  -0.00064  -0.00185
  40        5PY        -0.00204  -0.00064  -0.00064   0.00079  -0.00185
  41        5PZ        -0.00204   0.00079  -0.00064  -0.00064  -0.00093
  42        6PX        -0.01159   0.03902   0.02153   0.03902  -0.02095
  43        6PY        -0.01159   0.03902   0.03902   0.02153  -0.02095
  44        6PZ        -0.01159   0.02153   0.03902   0.03902  -0.00216
  45 3   H  1S         -0.00093  -0.01006   0.01006   0.01006  -0.03089
  46        2S          0.06593  -0.08460   0.08460   0.08460   0.15353
  47        3S         -0.35209  -0.42078   0.42078   0.42078  -0.61675
  48        4S         -1.55872   2.85519  -2.85519  -2.85519  -3.05051
  49        5PX         0.00204   0.00064   0.00079  -0.00064   0.00185
  50        5PY         0.00204   0.00064  -0.00064   0.00079   0.00185
  51        5PZ        -0.00204   0.00079   0.00064   0.00064  -0.00093
  52        6PX         0.01159  -0.03902   0.02153   0.03902   0.02095
  53        6PY         0.01159  -0.03902   0.03902   0.02153   0.02095
  54        6PZ        -0.01159   0.02153  -0.03902  -0.03902  -0.00216
  55 4   H  1S         -0.00093   0.01006  -0.01006   0.01006   0.03089
  56        2S          0.06593   0.08460  -0.08460   0.08460  -0.15353
  57        3S         -0.35209   0.42078  -0.42078   0.42078   0.61675
  58        4S         -1.55872  -2.85519   2.85519  -2.85519   3.05051
  59        5PX        -0.00204   0.00064   0.00079   0.00064   0.00185
  60        5PY         0.00204  -0.00064   0.00064   0.00079  -0.00185
  61        5PZ         0.00204   0.00079   0.00064  -0.00064  -0.00093
  62        6PX        -0.01159  -0.03902   0.02153  -0.03902   0.02095
  63        6PY         0.01159   0.03902  -0.03902   0.02153  -0.02095
  64        6PZ         0.01159   0.02153  -0.03902   0.03902  -0.00216
  65 5   H  1S         -0.00093   0.01006   0.01006  -0.01006   0.03089
  66        2S          0.06593   0.08460   0.08460  -0.08460  -0.15353
  67        3S         -0.35209   0.42078   0.42078  -0.42078   0.61675
  68        4S         -1.55872  -2.85519  -2.85519   2.85519   3.05051
  69        5PX         0.00204  -0.00064   0.00079   0.00064  -0.00185
  70        5PY        -0.00204   0.00064   0.00064   0.00079   0.00185
  71        5PZ         0.00204   0.00079  -0.00064   0.00064  -0.00093
  72        6PX         0.01159   0.03902   0.02153  -0.03902  -0.02095
  73        6PY        -0.01159  -0.03902  -0.03902   0.02153   0.02095
  74        6PZ         0.01159   0.02153   0.03902  -0.03902  -0.00216
                          11        12        13        14        15
                        (T2)--V   (T2)--V   (A1)--V   (T2)--V   (T2)--V
     Eigenvalues --     0.15227   0.15227   0.18899   0.30015   0.30015
   1 1   C  1S          0.00000   0.00000   0.03735   0.00000   0.00000
   2        2S          0.00000   0.00000   0.06577   0.00000   0.00000
   3        2PX        -0.00977   0.00000   0.00000   0.00000   0.12204
   4        2PY         0.00000  -0.00977   0.00000   0.00000   0.00000
   5        2PZ         0.00000   0.00000   0.00000   0.12204   0.00000
   6        3S          0.00000   0.00000  -0.14590   0.00000   0.00000
   7        3PX        -0.05736   0.00000   0.00000   0.00000   0.32941
   8        3PY         0.00000  -0.05736   0.00000   0.00000   0.00000
   9        3PZ         0.00000   0.00000   0.00000   0.32941   0.00000
  10        4S          0.00000   0.00000  -0.54324   0.00000   0.00000
  11        4PX        -0.33536   0.00000   0.00000   0.00000   2.20376
  12        4PY         0.00000  -0.33536   0.00000   0.00000   0.00000
  13        4PZ         0.00000   0.00000   0.00000   2.20376   0.00000
  14        5S          0.00000   0.00000  14.69717   0.00000   0.00000
  15        5PX         3.79410   0.00000   0.00000   0.00000  -1.26417
  16        5PY         0.00000   3.79410   0.00000   0.00000   0.00000
  17        5PZ         0.00000   0.00000   0.00000  -1.26417   0.00000
  18        6D 0        0.00000   0.00000   0.00000   0.00000   0.00000
  19        6D+1        0.00000  -0.00923   0.00000   0.00000   0.00000
  20        6D-1       -0.00923   0.00000   0.00000   0.00000  -0.01271
  21        6D+2        0.00000   0.00000   0.00000   0.00000   0.00000
  22        6D-2        0.00000   0.00000   0.00000  -0.01271   0.00000
  23        7D 0        0.00000   0.00000  -0.00000   0.00000   0.00000
  24        7D+1        0.00000  -0.10999   0.00000   0.00000   0.00000
  25        7D-1       -0.10999   0.00000   0.00000   0.00000   0.22317
  26        7D+2        0.00000   0.00000  -0.00000   0.00000   0.00000
  27        7D-2        0.00000   0.00000   0.00000   0.22317   0.00000
  28        8F 0        0.00000   0.00000   0.00000  -0.00884   0.00000
  29        8F+1       -0.00599   0.00000   0.00000   0.00000   0.00541
  30        8F-1        0.00000  -0.00599   0.00000   0.00000   0.00000
  31        8F+2        0.00000   0.00000   0.00000  -0.00000   0.00000
  32        8F-2        0.00000   0.00000  -0.01937   0.00000   0.00000
  33        8F+3        0.00774   0.00000   0.00000   0.00000  -0.00699
  34        8F-3        0.00000  -0.00774   0.00000   0.00000   0.00000
  35 2   H  1S         -0.03089  -0.03089  -0.01329  -0.01200  -0.01200
  36        2S          0.15353   0.15353   0.17812  -0.31369  -0.31369
  37        3S         -0.61675  -0.61675  -1.40943  -1.93190  -1.93190
  38        4S         -3.05051  -3.05051  -2.66317   2.15346   2.15346
  39        5PX        -0.00093  -0.00185  -0.00107  -0.01093   0.00186
  40        5PY        -0.00185  -0.00093  -0.00107  -0.01093  -0.01093
  41        5PZ        -0.00185  -0.00185  -0.00107   0.00186  -0.01093
  42        6PX        -0.00216  -0.02095   0.00193   0.10634   0.06212
  43        6PY        -0.02095  -0.00216   0.00193   0.10634   0.10634
  44        6PZ        -0.02095  -0.02095   0.00193   0.06212   0.10634
  45 3   H  1S          0.03089   0.03089  -0.01329  -0.01200   0.01200
  46        2S         -0.15353  -0.15353   0.17812  -0.31369   0.31369
  47        3S          0.61675   0.61675  -1.40943  -1.93190   1.93190
  48        4S          3.05051   3.05051  -2.66317   2.15346  -2.15346
  49        5PX        -0.00093  -0.00185   0.00107   0.01093   0.00186
  50        5PY        -0.00185  -0.00093   0.00107   0.01093  -0.01093
  51        5PZ         0.00185   0.00185  -0.00107   0.00186   0.01093
  52        6PX        -0.00216  -0.02095  -0.00193  -0.10634   0.06212
  53        6PY        -0.02095  -0.00216  -0.00193  -0.10634   0.10634
  54        6PZ         0.02095   0.02095   0.00193   0.06212  -0.10634
  55 4   H  1S         -0.03089   0.03089  -0.01329   0.01200  -0.01200
  56        2S          0.15353  -0.15353   0.17812   0.31369  -0.31369
  57        3S         -0.61675   0.61675  -1.40943   1.93190  -1.93190
  58        4S         -3.05051   3.05051  -2.66317  -2.15346   2.15346
  59        5PX        -0.00093   0.00185  -0.00107   0.01093   0.00186
  60        5PY         0.00185  -0.00093   0.00107  -0.01093   0.01093
  61        5PZ         0.00185  -0.00185   0.00107   0.00186   0.01093
  62        6PX        -0.00216   0.02095   0.00193  -0.10634   0.06212
  63        6PY         0.02095  -0.00216  -0.00193   0.10634  -0.10634
  64        6PZ         0.02095  -0.02095  -0.00193   0.06212  -0.10634
  65 5   H  1S          0.03089  -0.03089  -0.01329   0.01200   0.01200
  66        2S         -0.15353   0.15353   0.17812   0.31369   0.31369
  67        3S          0.61675  -0.61675  -1.40943   1.93190   1.93190
  68        4S          3.05051  -3.05051  -2.66317  -2.15346  -2.15346
  69        5PX        -0.00093   0.00185   0.00107  -0.01093   0.00186
  70        5PY         0.00185  -0.00093  -0.00107   0.01093   0.01093
  71        5PZ        -0.00185   0.00185   0.00107   0.00186  -0.01093
  72        6PX        -0.00216   0.02095  -0.00193   0.10634   0.06212
  73        6PY         0.02095  -0.00216   0.00193  -0.10634  -0.10634
  74        6PZ        -0.02095   0.02095  -0.00193   0.06212   0.10634
                          16        17        18        19        20
                        (T2)--V   (A1)--V   (T2)--V   (T2)--V   (T2)--V
     Eigenvalues --     0.30015   0.36513   0.54746   0.54746   0.54746
   1 1   C  1S          0.00000  -0.04626   0.00000   0.00000   0.00000
   2        2S          0.00000  -0.08251   0.00000   0.00000   0.00000
   3        2PX         0.00000   0.00000   0.00000   0.00000   0.01988
   4        2PY         0.12204   0.00000   0.01988   0.00000   0.00000
   5        2PZ         0.00000   0.00000   0.00000   0.01988   0.00000
   6        3S          0.00000   0.10024   0.00000   0.00000   0.00000
   7        3PX         0.00000   0.00000   0.00000   0.00000  -0.05393
   8        3PY         0.32941   0.00000  -0.05393   0.00000   0.00000
   9        3PZ         0.00000   0.00000   0.00000  -0.05393   0.00000
  10        4S          0.00000   6.33956   0.00000   0.00000   0.00000
  11        4PX         0.00000   0.00000   0.00000   0.00000  -1.66074
  12        4PY         2.20376   0.00000  -1.66074   0.00000   0.00000
  13        4PZ         0.00000   0.00000   0.00000  -1.66074   0.00000
  14        5S          0.00000  15.75192   0.00000   0.00000   0.00000
  15        5PX         0.00000   0.00000   0.00000   0.00000   1.87307
  16        5PY        -1.26417   0.00000   1.87307   0.00000   0.00000
  17        5PZ         0.00000   0.00000   0.00000   1.87307   0.00000
  18        6D 0        0.00000   0.00000   0.00000   0.00000   0.00000
  19        6D+1       -0.01271   0.00000   0.03246   0.00000   0.00000
  20        6D-1        0.00000   0.00000   0.00000   0.00000   0.03246
  21        6D+2        0.00000  -0.00000   0.00000   0.00000   0.00000
  22        6D-2        0.00000   0.00000   0.00000   0.03246   0.00000
  23        7D 0        0.00000  -0.00000   0.00000   0.00000   0.00000
  24        7D+1        0.22317   0.00000  -0.19826   0.00000   0.00000
  25        7D-1        0.00000   0.00000   0.00000   0.00000  -0.19826
  26        7D+2        0.00000  -0.00000   0.00000   0.00000   0.00000
  27        7D-2        0.00000   0.00000   0.00000  -0.19826   0.00000
  28        8F 0        0.00000   0.00000   0.00000   0.03340   0.00000
  29        8F+1        0.00000   0.00000   0.00000   0.00000  -0.02045
  30        8F-1        0.00541   0.00000  -0.02045   0.00000   0.00000
  31        8F+2        0.00000   0.00000   0.00000   0.00000   0.00000
  32        8F-2        0.00000   0.02321   0.00000   0.00000   0.00000
  33        8F+3        0.00000   0.00000   0.00000   0.00000   0.02641
  34        8F-3        0.00699   0.00000  -0.02641   0.00000   0.00000
  35 2   H  1S         -0.01200  -0.02135   0.04330   0.04330   0.04330
  36        2S         -0.31369  -0.30198   1.05656   1.05656   1.05656
  37        3S         -1.93190  -4.05886  -0.86796  -0.86796  -0.86796
  38        4S          2.15346  -2.09512  -0.95663  -0.95663  -0.95663
  39        5PX        -0.01093  -0.00932  -0.00676  -0.00676  -0.01650
  40        5PY         0.00186  -0.00932  -0.01650  -0.00676  -0.00676
  41        5PZ        -0.01093  -0.00932  -0.00676  -0.01650  -0.00676
  42        6PX         0.10634   0.13821  -0.01360  -0.01360  -0.06506
  43        6PY         0.06212   0.13821  -0.06506  -0.01360  -0.01360
  44        6PZ         0.10634   0.13821  -0.01360  -0.06506  -0.01360
  45 3   H  1S          0.01200  -0.02135  -0.04330   0.04330  -0.04330
  46        2S          0.31369  -0.30198  -1.05656   1.05656  -1.05656
  47        3S          1.93190  -4.05886   0.86796  -0.86796   0.86796
  48        4S         -2.15346  -2.09512   0.95663  -0.95663   0.95663
  49        5PX        -0.01093   0.00932  -0.00676   0.00676  -0.01650
  50        5PY         0.00186   0.00932  -0.01650   0.00676  -0.00676
  51        5PZ         0.01093  -0.00932   0.00676  -0.01650   0.00676
  52        6PX         0.10634  -0.13821  -0.01360   0.01360  -0.06506
  53        6PY         0.06212  -0.13821  -0.06506   0.01360  -0.01360
  54        6PZ        -0.10634   0.13821   0.01360  -0.06506   0.01360
  55 4   H  1S          0.01200  -0.02135  -0.04330  -0.04330   0.04330
  56        2S          0.31369  -0.30198  -1.05656  -1.05656   1.05656
  57        3S          1.93190  -4.05886   0.86796   0.86796  -0.86796
  58        4S         -2.15346  -2.09512   0.95663   0.95663  -0.95663
  59        5PX         0.01093  -0.00932   0.00676   0.00676  -0.01650
  60        5PY         0.00186   0.00932  -0.01650  -0.00676   0.00676
  61        5PZ        -0.01093   0.00932  -0.00676  -0.01650   0.00676
  62        6PX        -0.10634   0.13821   0.01360   0.01360  -0.06506
  63        6PY         0.06212  -0.13821  -0.06506  -0.01360   0.01360
  64        6PZ         0.10634  -0.13821  -0.01360  -0.06506   0.01360
  65 5   H  1S         -0.01200  -0.02135   0.04330  -0.04330  -0.04330
  66        2S         -0.31369  -0.30198   1.05656  -1.05656  -1.05656
  67        3S         -1.93190  -4.05886  -0.86796   0.86796   0.86796
  68        4S          2.15346  -2.09512  -0.95663   0.95663   0.95663
  69        5PX         0.01093   0.00932   0.00676  -0.00676  -0.01650
  70        5PY         0.00186  -0.00932  -0.01650   0.00676   0.00676
  71        5PZ         0.01093   0.00932   0.00676  -0.01650  -0.00676
  72        6PX        -0.10634  -0.13821   0.01360  -0.01360  -0.06506
  73        6PY         0.06212   0.13821  -0.06506   0.01360   0.01360
  74        6PZ        -0.10634  -0.13821   0.01360  -0.06506  -0.01360
                          21        22        23        24        25
                        (E)--V    (E)--V    (T2)--V   (T2)--V   (T2)--V
     Eigenvalues --     0.67201   0.67201   0.75123   0.75123   0.75123
   1 1   C  1S          0.00000  -0.00000   0.00000   0.00000   0.00000
   2        2S          0.00000  -0.00000   0.00000   0.00000   0.00000
   3        2PX         0.00000   0.00000   0.00000   0.00000  -0.27803
   4        2PY         0.00000   0.00000  -0.27803   0.00000   0.00000
   5        2PZ         0.00000   0.00000   0.00000  -0.27803   0.00000
   6        3S         -0.00000   0.00000   0.00000   0.00000   0.00000
   7        3PX         0.00000   0.00000   0.00000   0.00000  -0.05408
   8        3PY         0.00000   0.00000  -0.05408   0.00000   0.00000
   9        3PZ         0.00000   0.00000   0.00000  -0.05408   0.00000
  10        4S          0.00000  -0.00000   0.00000   0.00000   0.00000
  11        4PX         0.00000   0.00000   0.00000   0.00000   4.08299
  12        4PY         0.00000   0.00000   4.08299   0.00000   0.00000
  13        4PZ         0.00000   0.00000   0.00000   4.08299   0.00000
  14        5S          0.00000   0.00000   0.00000   0.00000   0.00000
  15        5PX         0.00000   0.00000   0.00000   0.00000  -1.45281
  16        5PY         0.00000   0.00000  -1.45281   0.00000   0.00000
  17        5PZ         0.00000   0.00000   0.00000  -1.45281   0.00000
  18        6D 0       -0.01261  -0.02062   0.00000   0.00000   0.00000
  19        6D+1        0.00000   0.00000   0.00409   0.00000   0.00000
  20        6D-1        0.00000   0.00000   0.00000   0.00000   0.00409
  21        6D+2       -0.02062   0.01261   0.00000   0.00000   0.00000
  22        6D-2        0.00000   0.00000   0.00000   0.00409   0.00000
  23        7D 0       -0.04614  -0.07544   0.00000   0.00000   0.00000
  24        7D+1        0.00000   0.00000   1.02240   0.00000   0.00000
  25        7D-1        0.00000   0.00000   0.00000   0.00000   1.02240
  26        7D+2       -0.07544   0.04614   0.00000   0.00000   0.00000
  27        7D-2        0.00000   0.00000   0.00000   1.02240   0.00000
  28        8F 0        0.00000   0.00000   0.00000  -0.04662   0.00000
  29        8F+1        0.00000   0.00000   0.00000   0.00000   0.02855
  30        8F-1        0.00000   0.00000   0.02855   0.00000   0.00000
  31        8F+2        0.00000   0.00000   0.00000  -0.00000   0.00000
  32        8F-2        0.00000  -0.00000   0.00000   0.00000   0.00000
  33        8F+3        0.00000   0.00000   0.00000   0.00000  -0.03685
  34        8F-3        0.00000   0.00000   0.03685   0.00000   0.00000
  35 2   H  1S          0.00000  -0.00000   0.06100   0.06100   0.06100
  36        2S         -0.00000   0.00000  -0.94722  -0.94722  -0.94722
  37        3S         -0.00000  -0.00000  -1.85419  -1.85419  -1.85419
  38        4S         -0.00000  -0.00000   1.76186   1.76186   1.76186
  39        5PX         0.01049  -0.01928  -0.00645  -0.00645   0.01021
  40        5PY        -0.02194   0.00056   0.01021  -0.00645  -0.00645
  41        5PZ         0.01145   0.01872  -0.00645   0.01021  -0.00645
  42        6PX        -0.17213   0.31637   0.42074   0.42074   0.22780
  43        6PY         0.36005  -0.00911   0.22780   0.42074   0.42074
  44        6PZ        -0.18792  -0.30726   0.42074   0.22780   0.42074
  45 3   H  1S          0.00000  -0.00000  -0.06100   0.06100  -0.06100
  46        2S         -0.00000   0.00000   0.94722  -0.94722   0.94722
  47        3S         -0.00000  -0.00000   1.85419  -1.85419   1.85419
  48        4S         -0.00000  -0.00000  -1.76186   1.76186  -1.76186
  49        5PX        -0.01049   0.01928  -0.00645   0.00645   0.01021
  50        5PY         0.02194  -0.00056   0.01021   0.00645  -0.00645
  51        5PZ         0.01145   0.01872   0.00645   0.01021   0.00645
  52        6PX         0.17213  -0.31637   0.42074  -0.42074   0.22780
  53        6PY        -0.36005   0.00911   0.22780  -0.42074   0.42074
  54        6PZ        -0.18792  -0.30726  -0.42074   0.22780  -0.42074
  55 4   H  1S          0.00000  -0.00000  -0.06100  -0.06100   0.06100
  56        2S         -0.00000   0.00000   0.94722   0.94722  -0.94722
  57        3S         -0.00000  -0.00000   1.85419   1.85419  -1.85419
  58        4S         -0.00000  -0.00000  -1.76186  -1.76186   1.76186
  59        5PX         0.01049  -0.01928   0.00645   0.00645   0.01021
  60        5PY         0.02194  -0.00056   0.01021  -0.00645   0.00645
  61        5PZ        -0.01145  -0.01872  -0.00645   0.01021   0.00645
  62        6PX        -0.17213   0.31637  -0.42074  -0.42074   0.22780
  63        6PY        -0.36005   0.00911   0.22780   0.42074  -0.42074
  64        6PZ         0.18792   0.30726   0.42074   0.22780  -0.42074
  65 5   H  1S          0.00000  -0.00000   0.06100  -0.06100  -0.06100
  66        2S         -0.00000   0.00000  -0.94722   0.94722   0.94722
  67        3S         -0.00000  -0.00000  -1.85419   1.85419   1.85419
  68        4S         -0.00000  -0.00000   1.76186  -1.76186  -1.76186
  69        5PX        -0.01049   0.01928   0.00645  -0.00645   0.01021
  70        5PY        -0.02194   0.00056   0.01021   0.00645   0.00645
  71        5PZ        -0.01145  -0.01872   0.00645   0.01021  -0.00645
  72        6PX         0.17213  -0.31637  -0.42074   0.42074   0.22780
  73        6PY         0.36005  -0.00911   0.22780  -0.42074  -0.42074
  74        6PZ         0.18792   0.30726  -0.42074   0.22780   0.42074
                          26        27        28        29        30
                        (A1)--V   (A1)--V   (T1)--V   (T1)--V   (T1)--V
     Eigenvalues --     0.83277   0.86508   1.05973   1.05973   1.05973
   1 1   C  1S          0.08941  -0.01573   0.00000   0.00000   0.00000
   2        2S          0.15902  -0.03377   0.00000   0.00000   0.00000
   3        2PX         0.00000   0.00000   0.00000   0.00000   0.00000
   4        2PY         0.00000   0.00000   0.00000   0.00000  -0.00000
   5        2PZ         0.00000   0.00000   0.00000   0.00000   0.00000
   6        3S         -0.88690   0.70908   0.00000   0.00000   0.00000
   7        3PX         0.00000   0.00000   0.00000   0.00000   0.00000
   8        3PY         0.00000   0.00000   0.00000   0.00000   0.00000
   9        3PZ         0.00000   0.00000   0.00000  -0.00000   0.00000
  10        4S         10.06040  -6.17334   0.00000   0.00000   0.00000
  11        4PX         0.00000   0.00000   0.00000   0.00000   0.00000
  12        4PY         0.00000   0.00000   0.00000   0.00000  -0.00000
  13        4PZ         0.00000   0.00000   0.00000  -0.00000   0.00000
  14        5S          6.65330   6.85046   0.00000   0.00000   0.00000
  15        5PX         0.00000   0.00000  -0.00000   0.00000   0.00000
  16        5PY         0.00000   0.00000   0.00000   0.00000   0.00000
  17        5PZ         0.00000   0.00000   0.00000   0.00000   0.00000
  18        6D 0        0.00000   0.00000   0.00000   0.00000   0.00000
  19        6D+1        0.00000   0.00000   0.00000   0.00000   0.00000
  20        6D-1        0.00000   0.00000  -0.00000   0.00000   0.00000
  21        6D+2       -0.00000   0.00000   0.00000   0.00000   0.00000
  22        6D-2        0.00000   0.00000   0.00000   0.00000   0.00000
  23        7D 0       -0.00000  -0.00000   0.00000   0.00000   0.00000
  24        7D+1        0.00000   0.00000   0.00000   0.00000  -0.00000
  25        7D-1        0.00000   0.00000   0.00000   0.00000   0.00000
  26        7D+2       -0.00000  -0.00000   0.00000   0.00000   0.00000
  27        7D-2        0.00000   0.00000   0.00000  -0.00000   0.00000
  28        8F 0        0.00000   0.00000   0.00000   0.00000   0.00000
  29        8F+1        0.00000   0.00000   0.04025   0.00000   0.00000
  30        8F-1        0.00000   0.00000   0.00000   0.00000   0.04025
  31        8F+2        0.00000   0.00000   0.00000  -0.05091   0.00000
  32        8F-2        0.09482  -0.10019   0.00000   0.00000   0.00000
  33        8F+3        0.00000   0.00000   0.03117   0.00000   0.00000
  34        8F-3        0.00000   0.00000   0.00000   0.00000  -0.03117
  35 2   H  1S          0.09610   0.03468   0.00000  -0.00000   0.00000
  36        2S         -0.68903   1.80713  -0.00000   0.00000   0.00000
  37        3S         -3.34964  -0.55850   0.00000   0.00000  -0.00000
  38        4S         -0.62692  -1.12674  -0.00000  -0.00000  -0.00000
  39        5PX        -0.00354  -0.01396   0.00000  -0.02658  -0.02658
  40        5PY        -0.00354  -0.01396  -0.02658   0.02658  -0.00000
  41        5PZ        -0.00354  -0.01396   0.02658  -0.00000   0.02658
  42        6PX         0.47905  -0.15280   0.00000   0.47730   0.47730
  43        6PY         0.47905  -0.15280   0.47730  -0.47730  -0.00000
  44        6PZ         0.47905  -0.15280  -0.47730  -0.00000  -0.47730
  45 3   H  1S          0.09610   0.03468  -0.00000  -0.00000  -0.00000
  46        2S         -0.68903   1.80713   0.00000   0.00000  -0.00000
  47        3S         -3.34964  -0.55850  -0.00000   0.00000   0.00000
  48        4S         -0.62692  -1.12674   0.00000  -0.00000   0.00000
  49        5PX         0.00354   0.01396   0.00000   0.02658  -0.02658
  50        5PY         0.00354   0.01396  -0.02658  -0.02658  -0.00000
  51        5PZ        -0.00354  -0.01396  -0.02658  -0.00000  -0.02658
  52        6PX        -0.47905   0.15280   0.00000  -0.47730   0.47730
  53        6PY        -0.47905   0.15280   0.47730   0.47730  -0.00000
  54        6PZ         0.47905  -0.15280   0.47730  -0.00000   0.47730
  55 4   H  1S          0.09610   0.03468   0.00000   0.00000  -0.00000
  56        2S         -0.68903   1.80713  -0.00000  -0.00000  -0.00000
  57        3S         -3.34964  -0.55850   0.00000  -0.00000   0.00000
  58        4S         -0.62692  -1.12674  -0.00000   0.00000   0.00000
  59        5PX        -0.00354  -0.01396   0.00000   0.02658   0.02658
  60        5PY         0.00354   0.01396   0.02658   0.02658  -0.00000
  61        5PZ         0.00354   0.01396  -0.02658  -0.00000   0.02658
  62        6PX         0.47905  -0.15280   0.00000  -0.47730  -0.47730
  63        6PY        -0.47905   0.15280  -0.47730  -0.47730  -0.00000
  64        6PZ        -0.47905   0.15280   0.47730  -0.00000  -0.47730
  65 5   H  1S          0.09610   0.03468  -0.00000   0.00000   0.00000
  66        2S         -0.68903   1.80713   0.00000  -0.00000   0.00000
  67        3S         -3.34964  -0.55850  -0.00000  -0.00000  -0.00000
  68        4S         -0.62692  -1.12674   0.00000   0.00000  -0.00000
  69        5PX         0.00354   0.01396   0.00000  -0.02658   0.02658
  70        5PY        -0.00354  -0.01396   0.02658  -0.02658  -0.00000
  71        5PZ         0.00354   0.01396   0.02658  -0.00000  -0.02658
  72        6PX        -0.47905   0.15280   0.00000   0.47730  -0.47730
  73        6PY         0.47905  -0.15280  -0.47730   0.47730  -0.00000
  74        6PZ        -0.47905   0.15280  -0.47730  -0.00000   0.47730
                          31        32        33        34        35
                        (T2)--V   (T2)--V   (T2)--V   (T2)--V   (T2)--V
     Eigenvalues --     1.24570   1.24570   1.24570   1.34742   1.34742
   1 1   C  1S          0.00000   0.00000   0.00000   0.00000   0.00000
   2        2S          0.00000   0.00000   0.00000   0.00000   0.00000
   3        2PX         0.00000   0.00000   0.01687   0.00000   0.08190
   4        2PY         0.01687   0.00000   0.00000   0.00000   0.00000
   5        2PZ         0.00000   0.01687   0.00000   0.08190   0.00000
   6        3S          0.00000   0.00000   0.00000   0.00000   0.00000
   7        3PX         0.00000   0.00000   0.28464   0.00000  -0.00690
   8        3PY         0.28464   0.00000   0.00000   0.00000   0.00000
   9        3PZ         0.00000   0.28464   0.00000  -0.00690   0.00000
  10        4S          0.00000   0.00000   0.00000   0.00000   0.00000
  11        4PX         0.00000   0.00000   1.49041   0.00000   2.63721
  12        4PY         1.49041   0.00000   0.00000   0.00000   0.00000
  13        4PZ         0.00000   1.49041   0.00000   2.63721   0.00000
  14        5S          0.00000   0.00000   0.00000   0.00000   0.00000
  15        5PX         0.00000   0.00000  -0.64275   0.00000  -0.65911
  16        5PY        -0.64275   0.00000   0.00000   0.00000   0.00000
  17        5PZ         0.00000  -0.64275   0.00000  -0.65911   0.00000
  18        6D 0        0.00000   0.00000   0.00000   0.00000   0.00000
  19        6D+1       -0.02322   0.00000   0.00000   0.00000   0.00000
  20        6D-1        0.00000   0.00000  -0.02322   0.00000   0.02191
  21        6D+2        0.00000   0.00000   0.00000   0.00000   0.00000
  22        6D-2        0.00000  -0.02322   0.00000   0.02191   0.00000
  23        7D 0        0.00000   0.00000   0.00000   0.00000   0.00000
  24        7D+1        2.06408   0.00000   0.00000   0.00000   0.00000
  25        7D-1        0.00000   0.00000   2.06408   0.00000  -0.62992
  26        7D+2        0.00000   0.00000   0.00000   0.00000   0.00000
  27        7D-2        0.00000   2.06408   0.00000  -0.62992   0.00000
  28        8F 0        0.00000  -0.06455   0.00000   0.03318   0.00000
  29        8F+1        0.00000   0.00000   0.03953   0.00000  -0.02032
  30        8F-1        0.03953   0.00000   0.00000   0.00000   0.00000
  31        8F+2        0.00000   0.00000   0.00000  -0.00000   0.00000
  32        8F-2        0.00000   0.00000   0.00000   0.00000   0.00000
  33        8F+3        0.00000   0.00000  -0.05103   0.00000   0.02623
  34        8F-3        0.05103   0.00000   0.00000   0.00000   0.00000
  35 2   H  1S          0.02278   0.02278   0.02278   0.01586   0.01586
  36        2S         -1.54581  -1.54581  -1.54581  -0.35435  -0.35435
  37        3S          0.39017   0.39017   0.39017  -0.26302  -0.26302
  38        4S          0.29808   0.29808   0.29808   0.51263   0.51263
  39        5PX         0.02930   0.02930   0.02439  -0.02185   0.04014
  40        5PY         0.02439   0.02930   0.02930  -0.02185  -0.02185
  41        5PZ         0.02930   0.02439   0.02930   0.04014  -0.02185
  42        6PX        -0.15573  -0.15573   0.10473   0.27744  -0.98084
  43        6PY         0.10473  -0.15573  -0.15573   0.27744   0.27744
  44        6PZ        -0.15573   0.10473  -0.15573  -0.98084   0.27744
  45 3   H  1S         -0.02278   0.02278  -0.02278   0.01586  -0.01586
  46        2S          1.54581  -1.54581   1.54581  -0.35435   0.35435
  47        3S         -0.39017   0.39017  -0.39017  -0.26302   0.26302
  48        4S         -0.29808   0.29808  -0.29808   0.51263  -0.51263
  49        5PX         0.02930  -0.02930   0.02439   0.02185   0.04014
  50        5PY         0.02439  -0.02930   0.02930   0.02185  -0.02185
  51        5PZ        -0.02930   0.02439  -0.02930   0.04014   0.02185
  52        6PX        -0.15573   0.15573   0.10473  -0.27744  -0.98084
  53        6PY         0.10473   0.15573  -0.15573  -0.27744   0.27744
  54        6PZ         0.15573   0.10473   0.15573  -0.98084  -0.27744
  55 4   H  1S         -0.02278  -0.02278   0.02278  -0.01586   0.01586
  56        2S          1.54581   1.54581  -1.54581   0.35435  -0.35435
  57        3S         -0.39017  -0.39017   0.39017   0.26302  -0.26302
  58        4S         -0.29808  -0.29808   0.29808  -0.51263   0.51263
  59        5PX        -0.02930  -0.02930   0.02439   0.02185   0.04014
  60        5PY         0.02439   0.02930  -0.02930  -0.02185   0.02185
  61        5PZ         0.02930   0.02439  -0.02930   0.04014   0.02185
  62        6PX         0.15573   0.15573   0.10473  -0.27744  -0.98084
  63        6PY         0.10473  -0.15573   0.15573   0.27744  -0.27744
  64        6PZ        -0.15573   0.10473   0.15573  -0.98084  -0.27744
  65 5   H  1S          0.02278  -0.02278  -0.02278  -0.01586  -0.01586
  66        2S         -1.54581   1.54581   1.54581   0.35435   0.35435
  67        3S          0.39017  -0.39017  -0.39017   0.26302   0.26302
  68        4S          0.29808  -0.29808  -0.29808  -0.51263  -0.51263
  69        5PX        -0.02930   0.02930   0.02439  -0.02185   0.04014
  70        5PY         0.02439  -0.02930  -0.02930   0.02185   0.02185
  71        5PZ        -0.02930   0.02439   0.02930   0.04014  -0.02185
  72        6PX         0.15573  -0.15573   0.10473   0.27744  -0.98084
  73        6PY         0.10473   0.15573   0.15573  -0.27744  -0.27744
  74        6PZ         0.15573   0.10473  -0.15573  -0.98084   0.27744
                          36        37        38        39        40
                        (T2)--V   (E)--V    (E)--V    (T2)--V   (T2)--V
     Eigenvalues --     1.34742   1.59073   1.59073   1.68495   1.68495
   1 1   C  1S          0.00000  -0.00000   0.00000   0.00000   0.00000
   2        2S          0.00000  -0.00000   0.00000   0.00000   0.00000
   3        2PX         0.00000   0.00000  -0.00000   0.00000   0.00000
   4        2PY         0.08190   0.00000  -0.00000   0.27499   0.00000
   5        2PZ         0.00000   0.00000  -0.00000   0.00000   0.27499
   6        3S          0.00000   0.00000  -0.00000   0.00000   0.00000
   7        3PX         0.00000   0.00000  -0.00000   0.00000   0.00000
   8        3PY        -0.00690   0.00000  -0.00000   2.44508   0.00000
   9        3PZ         0.00000   0.00000  -0.00000   0.00000   2.44508
  10        4S          0.00000   0.00000  -0.00000   0.00000   0.00000
  11        4PX         0.00000   0.00000  -0.00000   0.00000   0.00000
  12        4PY         2.63721   0.00000  -0.00000   3.72993   0.00000
  13        4PZ         0.00000   0.00000  -0.00000   0.00000   3.72993
  14        5S          0.00000   0.00000   0.00000   0.00000   0.00000
  15        5PX         0.00000   0.00000  -0.00000   0.00000   0.00000
  16        5PY        -0.65911   0.00000  -0.00000  -0.88357   0.00000
  17        5PZ         0.00000   0.00000  -0.00000   0.00000  -0.88357
  18        6D 0        0.00000   0.00522  -0.00048   0.00000   0.00000
  19        6D+1        0.02191   0.00000  -0.00000  -0.01784   0.00000
  20        6D-1        0.00000   0.00000  -0.00000   0.00000   0.00000
  21        6D+2        0.00000   0.00048   0.00522   0.00000   0.00000
  22        6D-2        0.00000   0.00000  -0.00000   0.00000  -0.01784
  23        7D 0        0.00000   2.61684  -0.24048   0.00000   0.00000
  24        7D+1       -0.62992   0.00000  -0.00000   2.01293   0.00000
  25        7D-1        0.00000   0.00000  -0.00000   0.00000   0.00000
  26        7D+2        0.00000   0.24048   2.61684   0.00000   0.00000
  27        7D-2        0.00000   0.00000  -0.00000   0.00000   2.01293
  28        8F 0        0.00000   0.00000  -0.00000   0.00000  -0.04490
  29        8F+1        0.00000   0.00000  -0.00000   0.00000   0.00000
  30        8F-1       -0.02032   0.00000  -0.00000   0.02749   0.00000
  31        8F+2        0.00000   0.00000  -0.00000   0.00000  -0.00000
  32        8F-2        0.00000   0.00000   0.00000   0.00000   0.00000
  33        8F+3        0.00000   0.00000  -0.00000   0.00000   0.00000
  34        8F-3       -0.02623   0.00000  -0.00000   0.03549   0.00000
  35 2   H  1S          0.01586  -0.00000   0.00000  -0.06083  -0.06083
  36        2S         -0.35435  -0.00000   0.00000  -2.60145  -2.60145
  37        3S         -0.26302  -0.00000   0.00000  -1.35128  -1.35128
  38        4S          0.51263  -0.00000  -0.00000   1.04996   1.04996
  39        5PX        -0.02185  -0.02280   0.04946  -0.02553  -0.02553
  40        5PY         0.04014  -0.03143  -0.04447  -0.00970  -0.02553
  41        5PZ        -0.02185   0.05423  -0.00498  -0.02553  -0.00970
  42        6PX         0.27744   0.40961  -0.88853   0.96532   0.96532
  43        6PY        -0.98084   0.56468   0.79899   0.80763   0.96532
  44        6PZ         0.27744  -0.97429   0.08953   0.96532   0.80763
  45 3   H  1S         -0.01586  -0.00000   0.00000   0.06083  -0.06083
  46        2S          0.35435  -0.00000   0.00000   2.60145  -2.60145
  47        3S          0.26302  -0.00000   0.00000   1.35128  -1.35128
  48        4S         -0.51263  -0.00000  -0.00000  -1.04996   1.04996
  49        5PX        -0.02185   0.02280  -0.04946  -0.02553   0.02553
  50        5PY         0.04014   0.03143   0.04447  -0.00970   0.02553
  51        5PZ         0.02185   0.05423  -0.00498   0.02553  -0.00970
  52        6PX         0.27744  -0.40961   0.88853   0.96532  -0.96532
  53        6PY        -0.98084  -0.56468  -0.79899   0.80763  -0.96532
  54        6PZ        -0.27744  -0.97429   0.08953  -0.96532   0.80763
  55 4   H  1S         -0.01586  -0.00000   0.00000   0.06083   0.06083
  56        2S          0.35435  -0.00000   0.00000   2.60145   2.60145
  57        3S          0.26302  -0.00000   0.00000   1.35128   1.35128
  58        4S         -0.51263  -0.00000  -0.00000  -1.04996  -1.04996
  59        5PX         0.02185  -0.02280   0.04946   0.02553   0.02553
  60        5PY         0.04014   0.03143   0.04447  -0.00970  -0.02553
  61        5PZ        -0.02185  -0.05423   0.00498  -0.02553  -0.00970
  62        6PX        -0.27744   0.40961  -0.88853  -0.96532  -0.96532
  63        6PY        -0.98084  -0.56468  -0.79899   0.80763   0.96532
  64        6PZ         0.27744   0.97429  -0.08953   0.96532   0.80763
  65 5   H  1S          0.01586  -0.00000   0.00000  -0.06083   0.06083
  66        2S         -0.35435  -0.00000   0.00000  -2.60145   2.60145
  67        3S         -0.26302  -0.00000   0.00000  -1.35128   1.35128
  68        4S          0.51263  -0.00000  -0.00000   1.04996  -1.04996
  69        5PX         0.02185   0.02280  -0.04946   0.02553  -0.02553
  70        5PY         0.04014  -0.03143  -0.04447  -0.00970   0.02553
  71        5PZ         0.02185  -0.05423   0.00498   0.02553  -0.00970
  72        6PX        -0.27744  -0.40961   0.88853  -0.96532   0.96532
  73        6PY        -0.98084   0.56468   0.79899   0.80763  -0.96532
  74        6PZ        -0.27744   0.97429  -0.08953  -0.96532   0.80763
                          41        42        43        44        45
                        (T2)--V   (A1)--V   (T2)--V   (T2)--V   (T2)--V
     Eigenvalues --     1.68495   1.82678   2.64452   2.64452   2.64452
   1 1   C  1S          0.00000  -0.11071   0.00000   0.00000   0.00000
   2        2S          0.00000  -0.27922   0.00000   0.00000   0.00000
   3        2PX         0.27499   0.00000   0.00000   0.00000  -0.04768
   4        2PY         0.00000   0.00000  -0.04768   0.00000   0.00000
   5        2PZ         0.00000   0.00000   0.00000  -0.04768   0.00000
   6        3S          0.00000   2.66856   0.00000   0.00000   0.00000
   7        3PX         2.44508   0.00000   0.00000   0.00000  -0.87461
   8        3PY         0.00000   0.00000  -0.87461   0.00000   0.00000
   9        3PZ         0.00000   0.00000   0.00000  -0.87461   0.00000
  10        4S          0.00000   8.76440   0.00000   0.00000   0.00000
  11        4PX         3.72993   0.00000   0.00000   0.00000  -1.23555
  12        4PY         0.00000   0.00000  -1.23555   0.00000   0.00000
  13        4PZ         0.00000   0.00000   0.00000  -1.23555   0.00000
  14        5S          0.00000   3.85393   0.00000   0.00000   0.00000
  15        5PX        -0.88357   0.00000   0.00000   0.00000   0.76759
  16        5PY         0.00000   0.00000   0.76759   0.00000   0.00000
  17        5PZ         0.00000   0.00000   0.00000   0.76759   0.00000
  18        6D 0        0.00000   0.00000   0.00000   0.00000   0.00000
  19        6D+1        0.00000   0.00000  -0.26664   0.00000   0.00000
  20        6D-1       -0.01784   0.00000   0.00000   0.00000  -0.26664
  21        6D+2        0.00000  -0.00000   0.00000   0.00000   0.00000
  22        6D-2        0.00000   0.00000   0.00000  -0.26664   0.00000
  23        7D 0        0.00000  -0.00000   0.00000   0.00000   0.00000
  24        7D+1        0.00000   0.00000  -0.47070   0.00000   0.00000
  25        7D-1        2.01293   0.00000   0.00000   0.00000  -0.47070
  26        7D+2        0.00000   0.00000   0.00000   0.00000   0.00000
  27        7D-2        0.00000   0.00000   0.00000  -0.47070   0.00000
  28        8F 0        0.00000   0.00000   0.00000   0.48587   0.00000
  29        8F+1        0.02749   0.00000   0.00000   0.00000  -0.29754
  30        8F-1        0.00000   0.00000  -0.29754   0.00000   0.00000
  31        8F+2        0.00000   0.00000   0.00000   0.00000   0.00000
  32        8F-2        0.00000  -0.06768   0.00000   0.00000   0.00000
  33        8F+3       -0.03549   0.00000   0.00000   0.00000   0.38412
  34        8F-3        0.00000   0.00000  -0.38412   0.00000   0.00000
  35 2   H  1S         -0.06083  -0.11065  -0.61728  -0.61728  -0.61728
  36        2S         -2.60145  -1.66639   1.80171   1.80171   1.80171
  37        3S         -1.35128  -2.17205  -0.33094  -0.33094  -0.33094
  38        4S          1.04996  -0.37191  -0.40599  -0.40599  -0.40599
  39        5PX        -0.00970  -0.05625  -0.02034  -0.02034   0.02495
  40        5PY        -0.02553  -0.05625   0.02495  -0.02034  -0.02034
  41        5PZ        -0.02553  -0.05625  -0.02034   0.02495  -0.02034
  42        6PX         0.80763   0.85409  -0.29607  -0.29607  -0.34736
  43        6PY         0.96532   0.85409  -0.34736  -0.29607  -0.29607
  44        6PZ         0.96532   0.85409  -0.29607  -0.34736  -0.29607
  45 3   H  1S          0.06083  -0.11065   0.61728  -0.61728   0.61728
  46        2S          2.60145  -1.66639  -1.80171   1.80171  -1.80171
  47        3S          1.35128  -2.17205   0.33094  -0.33094   0.33094
  48        4S         -1.04996  -0.37191   0.40599  -0.40599   0.40599
  49        5PX        -0.00970   0.05625  -0.02034   0.02034   0.02495
  50        5PY        -0.02553   0.05625   0.02495   0.02034  -0.02034
  51        5PZ         0.02553  -0.05625   0.02034   0.02495   0.02034
  52        6PX         0.80763  -0.85409  -0.29607   0.29607  -0.34736
  53        6PY         0.96532  -0.85409  -0.34736   0.29607  -0.29607
  54        6PZ        -0.96532   0.85409   0.29607  -0.34736   0.29607
  55 4   H  1S         -0.06083  -0.11065   0.61728   0.61728  -0.61728
  56        2S         -2.60145  -1.66639  -1.80171  -1.80171   1.80171
  57        3S         -1.35128  -2.17205   0.33094   0.33094  -0.33094
  58        4S          1.04996  -0.37191   0.40599   0.40599  -0.40599
  59        5PX        -0.00970  -0.05625   0.02034   0.02034   0.02495
  60        5PY         0.02553   0.05625   0.02495  -0.02034   0.02034
  61        5PZ         0.02553   0.05625  -0.02034   0.02495   0.02034
  62        6PX         0.80763   0.85409   0.29607   0.29607  -0.34736
  63        6PY        -0.96532  -0.85409  -0.34736  -0.29607   0.29607
  64        6PZ        -0.96532  -0.85409  -0.29607  -0.34736   0.29607
  65 5   H  1S          0.06083  -0.11065  -0.61728   0.61728   0.61728
  66        2S          2.60145  -1.66639   1.80171  -1.80171  -1.80171
  67        3S          1.35128  -2.17205  -0.33094   0.33094   0.33094
  68        4S         -1.04996  -0.37191  -0.40599   0.40599   0.40599
  69        5PX        -0.00970   0.05625   0.02034  -0.02034   0.02495
  70        5PY         0.02553  -0.05625   0.02495   0.02034   0.02034
  71        5PZ        -0.02553   0.05625   0.02034   0.02495  -0.02034
  72        6PX         0.80763  -0.85409   0.29607  -0.29607  -0.34736
  73        6PY        -0.96532   0.85409  -0.34736   0.29607   0.29607
  74        6PZ         0.96532  -0.85409   0.29607  -0.34736  -0.29607
                          46        47        48        49        50
                        (A1)--V   (T1)--V   (T1)--V   (T1)--V   (T2)--V
     Eigenvalues --     2.72911   3.27069   3.27069   3.27069   3.48195
   1 1   C  1S         -0.05482   0.00000   0.00000   0.00000   0.00000
   2        2S         -0.15794   0.00000   0.00000   0.00000   0.00000
   3        2PX         0.00000   0.00000  -0.00000   0.00000   0.00000
   4        2PY         0.00000   0.00000   0.00000  -0.00000   0.17632
   5        2PZ         0.00000  -0.00000   0.00000   0.00000   0.00000
   6        3S          1.56679   0.00000   0.00000   0.00000   0.00000
   7        3PX         0.00000   0.00000   0.00000   0.00000   0.00000
   8        3PY         0.00000   0.00000   0.00000  -0.00000  -0.87191
   9        3PZ         0.00000   0.00000   0.00000   0.00000   0.00000
  10        4S          7.02929   0.00000   0.00000   0.00000   0.00000
  11        4PX         0.00000   0.00000   0.00000   0.00000   0.00000
  12        4PY         0.00000   0.00000   0.00000  -0.00000  -1.24534
  13        4PZ         0.00000   0.00000   0.00000   0.00000   0.00000
  14        5S         -3.92941   0.00000   0.00000   0.00000   0.00000
  15        5PX         0.00000   0.00000  -0.00000   0.00000   0.00000
  16        5PY         0.00000   0.00000   0.00000   0.00000   0.36888
  17        5PZ         0.00000  -0.00000   0.00000   0.00000   0.00000
  18        6D 0       -0.00000   0.00000   0.00000   0.00000   0.00000
  19        6D+1        0.00000   0.00000   0.00000   0.00000   0.82548
  20        6D-1        0.00000   0.00000   0.00000   0.00000   0.00000
  21        6D+2       -0.00000   0.00000   0.00000   0.00000   0.00000
  22        6D-2        0.00000  -0.00000   0.00000   0.00000   0.00000
  23        7D 0       -0.00000   0.00000   0.00000   0.00000   0.00000
  24        7D+1        0.00000   0.00000   0.00000  -0.00000  -1.24446
  25        7D-1        0.00000   0.00000   0.00000   0.00000   0.00000
  26        7D+2       -0.00000   0.00000   0.00000   0.00000   0.00000
  27        7D-2        0.00000   0.00000   0.00000   0.00000   0.00000
  28        8F 0        0.00000  -0.00000   0.00000   0.00000   0.00000
  29        8F+1        0.00000   0.00000   0.72257   0.00000   0.00000
  30        8F-1        0.00000   0.00000   0.00000   0.72257  -0.11718
  31        8F+2        0.00000   0.91398   0.00000   0.00000   0.00000
  32        8F-2        0.66988   0.00000   0.00000   0.00000   0.00000
  33        8F+3        0.00000   0.00000   0.55970   0.00000   0.00000
  34        8F-3        0.00000   0.00000   0.00000  -0.55970  -0.15129
  35 2   H  1S          0.58270   0.00000   0.00000  -0.00000  -0.19183
  36        2S         -2.82190  -0.00000  -0.00000   0.00000   1.26130
  37        3S          0.10546  -0.00000  -0.00000   0.00000  -0.14001
  38        4S          0.66301   0.00000   0.00000  -0.00000  -0.19686
  39        5PX         0.04773   0.16597  -0.00000  -0.16597  -0.15671
  40        5PY         0.04773  -0.16597  -0.16597  -0.00000  -0.26454
  41        5PZ         0.04773   0.00000   0.16597   0.16597  -0.15671
  42        6PX         0.48095  -0.28530   0.00000   0.28530  -0.04444
  43        6PY         0.48095   0.28530   0.28530  -0.00000   0.08131
  44        6PZ         0.48095   0.00000  -0.28530  -0.28530  -0.04444
  45 3   H  1S          0.58270   0.00000  -0.00000   0.00000   0.19183
  46        2S         -2.82190  -0.00000   0.00000  -0.00000  -1.26130
  47        3S          0.10546  -0.00000   0.00000  -0.00000   0.14001
  48        4S          0.66301   0.00000  -0.00000   0.00000   0.19686
  49        5PX        -0.04773  -0.16597  -0.00000  -0.16597  -0.15671
  50        5PY        -0.04773   0.16597  -0.16597  -0.00000  -0.26454
  51        5PZ         0.04773   0.00000  -0.16597  -0.16597   0.15671
  52        6PX        -0.48095   0.28530   0.00000   0.28530  -0.04444
  53        6PY        -0.48095  -0.28530   0.28530  -0.00000   0.08131
  54        6PZ         0.48095   0.00000   0.28530   0.28530   0.04444
  55 4   H  1S          0.58270  -0.00000   0.00000   0.00000   0.19183
  56        2S         -2.82190   0.00000  -0.00000  -0.00000  -1.26130
  57        3S          0.10546   0.00000  -0.00000  -0.00000   0.14001
  58        4S          0.66301  -0.00000   0.00000   0.00000   0.19686
  59        5PX         0.04773  -0.16597  -0.00000   0.16597   0.15671
  60        5PY        -0.04773  -0.16597   0.16597  -0.00000  -0.26454
  61        5PZ        -0.04773   0.00000  -0.16597   0.16597  -0.15671
  62        6PX         0.48095   0.28530   0.00000  -0.28530   0.04444
  63        6PY        -0.48095   0.28530  -0.28530  -0.00000   0.08131
  64        6PZ        -0.48095   0.00000   0.28530  -0.28530  -0.04444
  65 5   H  1S          0.58270  -0.00000  -0.00000  -0.00000  -0.19183
  66        2S         -2.82190   0.00000   0.00000   0.00000   1.26130
  67        3S          0.10546   0.00000   0.00000   0.00000  -0.14001
  68        4S          0.66301  -0.00000  -0.00000  -0.00000  -0.19686
  69        5PX        -0.04773   0.16597  -0.00000   0.16597   0.15671
  70        5PY         0.04773   0.16597   0.16597  -0.00000  -0.26454
  71        5PZ        -0.04773   0.00000   0.16597  -0.16597   0.15671
  72        6PX        -0.48095  -0.28530   0.00000  -0.28530   0.04444
  73        6PY         0.48095  -0.28530  -0.28530  -0.00000   0.08131
  74        6PZ        -0.48095   0.00000  -0.28530   0.28530   0.04444
                          51        52        53        54        55
                        (T2)--V   (T2)--V   (E)--V    (E)--V    (T2)--V
     Eigenvalues --     3.48195   3.48195   3.59007   3.59007   3.68353
   1 1   C  1S          0.00000   0.00000   0.00000   0.00000   0.00000
   2        2S          0.00000   0.00000   0.00000   0.00000   0.00000
   3        2PX         0.17632   0.00000   0.00000   0.00000   0.00000
   4        2PY         0.00000   0.00000   0.00000   0.00000  -0.83879
   5        2PZ         0.00000   0.17632   0.00000   0.00000   0.00000
   6        3S          0.00000   0.00000  -0.00000  -0.00000   0.00000
   7        3PX        -0.87191   0.00000   0.00000   0.00000   0.00000
   8        3PY         0.00000   0.00000   0.00000   0.00000   2.26610
   9        3PZ         0.00000  -0.87191   0.00000   0.00000   0.00000
  10        4S          0.00000   0.00000   0.00000  -0.00000   0.00000
  11        4PX        -1.24534   0.00000   0.00000   0.00000   0.00000
  12        4PY         0.00000   0.00000   0.00000   0.00000   1.96137
  13        4PZ         0.00000  -1.24534   0.00000   0.00000   0.00000
  14        5S          0.00000   0.00000   0.00000  -0.00000   0.00000
  15        5PX         0.36888   0.00000   0.00000   0.00000   0.00000
  16        5PY         0.00000   0.00000   0.00000   0.00000  -0.43393
  17        5PZ         0.00000   0.36888   0.00000   0.00000   0.00000
  18        6D 0        0.00000   0.00000  -0.93343  -0.03402   0.00000
  19        6D+1        0.00000   0.00000   0.00000   0.00000   0.22829
  20        6D-1        0.82548   0.00000   0.00000   0.00000   0.00000
  21        6D+2        0.00000   0.00000   0.03402  -0.93343   0.00000
  22        6D-2        0.00000   0.82548   0.00000   0.00000   0.00000
  23        7D 0        0.00000   0.00000   1.18339   0.04314   0.00000
  24        7D+1        0.00000   0.00000   0.00000   0.00000   0.24795
  25        7D-1       -1.24446   0.00000   0.00000   0.00000   0.00000
  26        7D+2        0.00000   0.00000  -0.04314   1.18339   0.00000
  27        7D-2        0.00000  -1.24446   0.00000   0.00000   0.00000
  28        8F 0        0.00000   0.19136   0.00000   0.00000   0.00000
  29        8F+1       -0.11718   0.00000   0.00000   0.00000   0.00000
  30        8F-1        0.00000   0.00000   0.00000   0.00000  -0.42607
  31        8F+2        0.00000   0.00000   0.00000   0.00000   0.00000
  32        8F-2        0.00000   0.00000  -0.00000  -0.00000   0.00000
  33        8F+3        0.15129   0.00000   0.00000   0.00000   0.00000
  34        8F-3        0.00000   0.00000   0.00000   0.00000  -0.55006
  35 2   H  1S         -0.19183  -0.19183   0.00000  -0.00000   0.45342
  36        2S          1.26130   1.26130   0.00000   0.00000  -1.77066
  37        3S         -0.14001  -0.14001  -0.00000   0.00000  -0.29832
  38        4S         -0.19686  -0.19686  -0.00000   0.00000   0.36316
  39        5PX        -0.26454  -0.15671   0.14460  -0.23063  -0.10834
  40        5PY        -0.15671  -0.15671   0.12743   0.24055   0.10678
  41        5PZ        -0.15671  -0.26454  -0.27204  -0.00992  -0.10834
  42        6PX         0.08131  -0.04444   0.08751  -0.13957   0.66917
  43        6PY        -0.04444  -0.04444   0.07711   0.14557   0.04803
  44        6PZ        -0.04444   0.08131  -0.16462  -0.00600   0.66917
  45 3   H  1S          0.19183  -0.19183   0.00000  -0.00000  -0.45342
  46        2S         -1.26130   1.26130   0.00000   0.00000   1.77066
  47        3S          0.14001  -0.14001  -0.00000   0.00000   0.29832
  48        4S          0.19686  -0.19686  -0.00000   0.00000  -0.36316
  49        5PX        -0.26454   0.15671  -0.14460   0.23063  -0.10834
  50        5PY        -0.15671   0.15671  -0.12743  -0.24055   0.10678
  51        5PZ         0.15671  -0.26454  -0.27204  -0.00992   0.10834
  52        6PX         0.08131   0.04444  -0.08751   0.13957   0.66917
  53        6PY        -0.04444   0.04444  -0.07711  -0.14557   0.04803
  54        6PZ         0.04444   0.08131  -0.16462  -0.00600  -0.66917
  55 4   H  1S         -0.19183   0.19183   0.00000  -0.00000  -0.45342
  56        2S          1.26130  -1.26130   0.00000   0.00000   1.77066
  57        3S         -0.14001   0.14001  -0.00000   0.00000   0.29832
  58        4S         -0.19686   0.19686  -0.00000   0.00000  -0.36316
  59        5PX        -0.26454   0.15671   0.14460  -0.23063   0.10834
  60        5PY         0.15671  -0.15671  -0.12743  -0.24055   0.10678
  61        5PZ         0.15671  -0.26454   0.27204   0.00992  -0.10834
  62        6PX         0.08131   0.04444   0.08751  -0.13957  -0.66917
  63        6PY         0.04444  -0.04444  -0.07711  -0.14557   0.04803
  64        6PZ         0.04444   0.08131   0.16462   0.00600   0.66917
  65 5   H  1S          0.19183   0.19183   0.00000  -0.00000   0.45342
  66        2S         -1.26130  -1.26130   0.00000   0.00000  -1.77066
  67        3S          0.14001   0.14001  -0.00000   0.00000  -0.29832
  68        4S          0.19686   0.19686  -0.00000   0.00000   0.36316
  69        5PX        -0.26454  -0.15671  -0.14460   0.23063   0.10834
  70        5PY         0.15671   0.15671   0.12743   0.24055   0.10678
  71        5PZ        -0.15671  -0.26454   0.27204   0.00992   0.10834
  72        6PX         0.08131  -0.04444  -0.08751   0.13957  -0.66917
  73        6PY         0.04444   0.04444   0.07711   0.14557   0.04803
  74        6PZ        -0.04444   0.08131   0.16462   0.00600  -0.66917
                          56        57        58        59        60
                        (T2)--V   (T2)--V   (T2)--V   (T2)--V   (T2)--V
     Eigenvalues --     3.68353   3.68353   4.24302   4.24302   4.24302
   1 1   C  1S          0.00000   0.00000   0.00000   0.00000   0.00000
   2        2S          0.00000   0.00000   0.00000   0.00000   0.00000
   3        2PX        -0.83879   0.00000   0.00000   0.00000  -1.18540
   4        2PY         0.00000   0.00000  -1.18540   0.00000   0.00000
   5        2PZ         0.00000  -0.83879   0.00000  -1.18540   0.00000
   6        3S          0.00000   0.00000   0.00000   0.00000   0.00000
   7        3PX         2.26610   0.00000   0.00000   0.00000   2.78822
   8        3PY         0.00000   0.00000   2.78822   0.00000   0.00000
   9        3PZ         0.00000   2.26610   0.00000   2.78822   0.00000
  10        4S          0.00000   0.00000   0.00000   0.00000   0.00000
  11        4PX         1.96137   0.00000   0.00000   0.00000   1.26220
  12        4PY         0.00000   0.00000   1.26220   0.00000   0.00000
  13        4PZ         0.00000   1.96137   0.00000   1.26220   0.00000
  14        5S          0.00000   0.00000   0.00000   0.00000   0.00000
  15        5PX        -0.43393   0.00000   0.00000   0.00000  -0.23053
  16        5PY         0.00000   0.00000  -0.23053   0.00000   0.00000
  17        5PZ         0.00000  -0.43393   0.00000  -0.23053   0.00000
  18        6D 0        0.00000   0.00000   0.00000   0.00000   0.00000
  19        6D+1        0.00000   0.00000  -0.29396   0.00000   0.00000
  20        6D-1        0.22829   0.00000   0.00000   0.00000  -0.29396
  21        6D+2        0.00000   0.00000   0.00000   0.00000   0.00000
  22        6D-2        0.00000   0.22829   0.00000  -0.29396   0.00000
  23        7D 0        0.00000   0.00000   0.00000   0.00000   0.00000
  24        7D+1        0.00000   0.00000   1.77783   0.00000   0.00000
  25        7D-1        0.24795   0.00000   0.00000   0.00000   1.77783
  26        7D+2        0.00000   0.00000   0.00000   0.00000   0.00000
  27        7D-2        0.00000   0.24795   0.00000   1.77783   0.00000
  28        8F 0        0.00000   0.69578   0.00000  -0.57904   0.00000
  29        8F+1       -0.42607   0.00000   0.00000   0.00000   0.35459
  30        8F-1        0.00000   0.00000   0.35459   0.00000   0.00000
  31        8F+2        0.00000   0.00000   0.00000   0.00000   0.00000
  32        8F-2        0.00000   0.00000   0.00000   0.00000   0.00000
  33        8F+3        0.55006   0.00000   0.00000   0.00000  -0.45777
  34        8F-3        0.00000   0.00000   0.45777   0.00000   0.00000
  35 2   H  1S          0.45342   0.45342  -0.27193  -0.27193  -0.27193
  36        2S         -1.77066  -1.77066  -1.60886  -1.60886  -1.60886
  37        3S         -0.29832  -0.29832  -0.49932  -0.49932  -0.49932
  38        4S          0.36316   0.36316   0.32126   0.32126   0.32126
  39        5PX         0.10678  -0.10834  -0.00870  -0.00870  -0.20406
  40        5PY        -0.10834  -0.10834  -0.20406  -0.00870  -0.00870
  41        5PZ        -0.10834   0.10678  -0.00870  -0.20406  -0.00870
  42        6PX         0.04803   0.66917   0.43233   0.43233   0.67174
  43        6PY         0.66917   0.66917   0.67174   0.43233   0.43233
  44        6PZ         0.66917   0.04803   0.43233   0.67174   0.43233
  45 3   H  1S         -0.45342   0.45342   0.27193  -0.27193   0.27193
  46        2S          1.77066  -1.77066   1.60886  -1.60886   1.60886
  47        3S          0.29832  -0.29832   0.49932  -0.49932   0.49932
  48        4S         -0.36316   0.36316  -0.32126   0.32126  -0.32126
  49        5PX         0.10678   0.10834  -0.00870   0.00870  -0.20406
  50        5PY        -0.10834   0.10834  -0.20406   0.00870  -0.00870
  51        5PZ         0.10834   0.10678   0.00870  -0.20406   0.00870
  52        6PX         0.04803  -0.66917   0.43233  -0.43233   0.67174
  53        6PY         0.66917  -0.66917   0.67174  -0.43233   0.43233
  54        6PZ        -0.66917   0.04803  -0.43233   0.67174  -0.43233
  55 4   H  1S          0.45342  -0.45342   0.27193   0.27193  -0.27193
  56        2S         -1.77066   1.77066   1.60886   1.60886  -1.60886
  57        3S         -0.29832   0.29832   0.49932   0.49932  -0.49932
  58        4S          0.36316  -0.36316  -0.32126  -0.32126   0.32126
  59        5PX         0.10678   0.10834   0.00870   0.00870  -0.20406
  60        5PY         0.10834  -0.10834  -0.20406  -0.00870   0.00870
  61        5PZ         0.10834   0.10678  -0.00870  -0.20406   0.00870
  62        6PX         0.04803  -0.66917  -0.43233  -0.43233   0.67174
  63        6PY        -0.66917   0.66917   0.67174   0.43233  -0.43233
  64        6PZ        -0.66917   0.04803   0.43233   0.67174  -0.43233
  65 5   H  1S         -0.45342  -0.45342  -0.27193   0.27193   0.27193
  66        2S          1.77066   1.77066  -1.60886   1.60886   1.60886
  67        3S          0.29832   0.29832  -0.49932   0.49932   0.49932
  68        4S         -0.36316  -0.36316   0.32126  -0.32126  -0.32126
  69        5PX         0.10678  -0.10834   0.00870  -0.00870  -0.20406
  70        5PY         0.10834   0.10834  -0.20406   0.00870   0.00870
  71        5PZ        -0.10834   0.10678   0.00870  -0.20406  -0.00870
  72        6PX         0.04803   0.66917  -0.43233   0.43233   0.67174
  73        6PY        -0.66917  -0.66917   0.67174  -0.43233  -0.43233
  74        6PZ         0.66917   0.04803  -0.43233   0.67174   0.43233
                          61        62        63        64        65
                        (A1)--V   (E)--V    (E)--V    (T2)--V   (T2)--V
     Eigenvalues --     4.33068   4.45419   4.45419   4.56512   4.56512
   1 1   C  1S          0.02753  -0.00000  -0.00000   0.00000   0.00000
   2        2S          0.06344  -0.00000  -0.00000   0.00000   0.00000
   3        2PX         0.00000   0.00000   0.00000   0.08281   0.00000
   4        2PY         0.00000   0.00000   0.00000   0.00000   0.00000
   5        2PZ         0.00000   0.00000   0.00000   0.00000   0.08281
   6        3S         -0.55598   0.00000   0.00000   0.00000   0.00000
   7        3PX         0.00000   0.00000   0.00000  -0.20791   0.00000
   8        3PY         0.00000   0.00000   0.00000   0.00000   0.00000
   9        3PZ         0.00000   0.00000   0.00000   0.00000  -0.20791
  10        4S          1.05408   0.00000  -0.00000   0.00000   0.00000
  11        4PX         0.00000   0.00000   0.00000   1.38332   0.00000
  12        4PY         0.00000   0.00000   0.00000   0.00000   0.00000
  13        4PZ         0.00000   0.00000   0.00000   0.00000   1.38332
  14        5S          2.71593   0.00000  -0.00000   0.00000   0.00000
  15        5PX         0.00000   0.00000   0.00000  -0.22900   0.00000
  16        5PY         0.00000   0.00000   0.00000   0.00000   0.00000
[...]
  35 2   H  1S          0.09170   0.04585   0.04585   0.00000
  36        2S          0.19914   0.09957   0.09957   0.00000
  37        3S          0.00672   0.00336   0.00336   0.00000
  38        4S         -0.00420  -0.00210  -0.00210   0.00000
  39        5PX         0.00217   0.00108   0.00108   0.00000
  40        5PY         0.00217   0.00108   0.00108   0.00000
  41        5PZ         0.00217   0.00108   0.00108   0.00000
  42        6PX         0.00904   0.00452   0.00452   0.00000
  43        6PY         0.00904   0.00452   0.00452   0.00000
  44        6PZ         0.00904   0.00452   0.00452   0.00000
  45 3   H  1S          0.09170   0.04585   0.04585   0.00000
  46        2S          0.19914   0.09957   0.09957   0.00000
  47        3S          0.00672   0.00336   0.00336   0.00000
  48        4S         -0.00420  -0.00210  -0.00210   0.00000
  49        5PX         0.00217   0.00108   0.00108   0.00000
  50        5PY         0.00217   0.00108   0.00108   0.00000
  51        5PZ         0.00217   0.00108   0.00108   0.00000
  52        6PX         0.00904   0.00452   0.00452   0.00000
  53        6PY         0.00904   0.00452   0.00452   0.00000
  54        6PZ         0.00904   0.00452   0.00452   0.00000
  55 4   H  1S          0.09170   0.04585   0.04585   0.00000
  56        2S          0.19914   0.09957   0.09957   0.00000
  57        3S          0.00672   0.00336   0.00336   0.00000
  58        4S         -0.00420  -0.00210  -0.00210   0.00000
  59        5PX         0.00217   0.00108   0.00108   0.00000
  60        5PY         0.00217   0.00108   0.00108   0.00000
  61        5PZ         0.00217   0.00108   0.00108   0.00000
  62        6PX         0.00904   0.00452   0.00452   0.00000
  63        6PY         0.00904   0.00452   0.00452   0.00000
  64        6PZ         0.00904   0.00452   0.00452   0.00000
  65 5   H  1S          0.09170   0.04585   0.04585   0.00000
  66        2S          0.19914   0.09957   0.09957   0.00000
  67        3S          0.00672   0.00336   0.00336   0.00000
  68        4S         -0.00420  -0.00210  -0.00210   0.00000
  69        5PX         0.00217   0.00108   0.00108   0.00000
  70        5PY         0.00217   0.00108   0.00108   0.00000
  71        5PZ         0.00217   0.00108   0.00108   0.00000
  72        6PX         0.00904   0.00452   0.00452   0.00000
  73        6PY         0.00904   0.00452   0.00452   0.00000
  74        6PZ         0.00904   0.00452   0.00452   0.00000
          Bonding Condensed to atoms (all electrons):
               1          2          3          4          5
     1  C    0.000000   0.414325   0.414325   0.414325   0.414325
     2  H    0.414325   0.000000  -0.029124  -0.029124  -0.029124
     3  H    0.414325  -0.029124   0.000000  -0.029124  -0.029124
     4  H    0.414325  -0.029124  -0.029124   0.000000  -0.029124
     5  H    0.414325  -0.029124  -0.029124  -0.029124   0.000000
          Bonding Atomic-Atomic Spin Densities.
               1          2          3          4          5
     1  C    0.000000   0.000000   0.000000   0.000000   0.000000
     2  H    0.000000   0.000000   0.000000   0.000000   0.000000
     3  H    0.000000   0.000000   0.000000   0.000000   0.000000
     4  H    0.000000   0.000000   0.000000   0.000000   0.000000
     5  H    0.000000   0.000000   0.000000   0.000000   0.000000
 Bonding Mulliken charges and spin densities:
               1          2
     1  C    4.342701   0.000000
     2  H    0.673049   0.000000
     3  H    0.673049   0.000000
     4  H    0.673049   0.000000
     5  H    0.673049   0.000000
 Sum of Bonding Mulliken charges =   7.03490   0.00000
 Bonding Mulliken charges and spin densities with hydrogens summed into heavy atoms:
               1          2
     1  C    7.034896   0.000000
 Electronic spatial extent (au):  <R**2>=             35.6951
 Charge=             -0.0000 electrons
 Dipole moment (field-independent basis, Debye):
    X=              0.0000    Y=              0.0000    Z=              0.0000  Tot=              0.0000
 Quadrupole moment (field-independent basis, Debye-Ang):
   XX=             -8.4185   YY=             -8.4185   ZZ=             -8.4185
   XY=              0.0000   XZ=              0.0000   YZ=              0.0000
 Traceless Quadrupole moment (field-independent basis, Debye-Ang):
   XX=             -0.0000   YY=             -0.0000   ZZ=              0.0000
   XY=              0.0000   XZ=              0.0000   YZ=              0.0000
 Octapole moment (field-independent basis, Debye-Ang**2):
  XXX=             -0.0000  YYY=              0.0000  ZZZ=              0.0000  XYY=              0.0000
  XXY=              0.0000  XXZ=              0.0000  XZZ=              0.0000  YZZ=              0.0000
  YYZ=             -0.0000  XYZ=              0.7017
 Hexadecapole moment (field-independent basis, Debye-Ang**3):
 XXXX=            -16.6430 YYYY=            -16.6430 ZZZZ=            -16.6430 XXXY=              0.0000
 XXXZ=             -0.0000 YYYX=             -0.0000 YYYZ=             -0.0000 ZZZX=             -0.0000
 ZZZY=             -0.0000 XXYY=             -4.9998 XXZZ=             -4.9998 YYZZ=             -4.9998
 XXYZ=              0.0000 YYXZ=              0.0000 ZZXY=              0.0000
 N-N= 1.345637626342D+01 E-N=-1.199448273738D+02  KE= 4.017414832145D+01
 Symmetry A    KE= 3.446913360114D+01
 Symmetry B1   KE= 1.901671573438D+00
 Symmetry B2   KE= 1.901671573438D+00
 Symmetry B3   KE= 1.901671573438D+00
 Symmetry A    SP= 0.000000000000D+00
 Symmetry B1   SP= 0.000000000000D+00
 Symmetry B2   SP= 0.000000000000D+00
 Symmetry B3   SP= 0.000000000000D+00
     Alpha  MBS Density Matrix:
                           1         2         3         4         5
   1 1   C  1S          1.03665
   2        2S         -0.11691   0.44096
   3        2PX        -0.00000   0.00000   0.32114
   4        2PY         0.00000   0.00000  -0.00000   0.32114
   5        2PZ        -0.00000   0.00000  -0.00000   0.00000   0.32114
   6 2   H  1S         -0.04275   0.11033   0.17223   0.17223   0.17223
   7 3   H  1S         -0.04275   0.11033  -0.17223  -0.17223   0.17223
   8 4   H  1S         -0.04275   0.11033   0.17223  -0.17223  -0.17223
   9 5   H  1S         -0.04275   0.11033  -0.17223   0.17223  -0.17223
                           6         7         8         9
   6 2   H  1S          0.30490
   7 3   H  1S         -0.06459   0.30490
   8 4   H  1S         -0.06459  -0.06459   0.30490
   9 5   H  1S         -0.06459  -0.06459  -0.06459   0.30490
     Beta  MBS Density Matrix:
                           1         2         3         4         5
   1 1   C  1S          1.03665
   2        2S         -0.11691   0.44096
   3        2PX        -0.00000   0.00000   0.32114
   4        2PY         0.00000   0.00000  -0.00000   0.32114
   5        2PZ        -0.00000   0.00000  -0.00000   0.00000   0.32114
   6 2   H  1S         -0.04275   0.11033   0.17223   0.17223   0.17223
   7 3   H  1S         -0.04275   0.11033  -0.17223  -0.17223   0.17223
   8 4   H  1S         -0.04275   0.11033   0.17223  -0.17223  -0.17223
   9 5   H  1S         -0.04275   0.11033  -0.17223   0.17223  -0.17223
                           6         7         8         9
   6 2   H  1S          0.30490
   7 3   H  1S         -0.06459   0.30490
   8 4   H  1S         -0.06459  -0.06459   0.30490
   9 5   H  1S         -0.06459  -0.06459  -0.06459   0.30490
    Full MBS Mulliken population analysis:
                           1         2         3         4         5
   1 1   C  1S          2.07331
   2        2S         -0.05807   0.88192
   3        2PX         0.00000   0.00000   0.64227
   4        2PY         0.00000   0.00000   0.00000   0.64227
   5        2PZ         0.00000   0.00000   0.00000   0.00000   0.64227
   6 2   H  1S         -0.00535   0.10850   0.09305   0.09305   0.09305
   7 3   H  1S         -0.00535   0.10850   0.09305   0.09305   0.09305
   8 4   H  1S         -0.00535   0.10850   0.09305   0.09305   0.09305
   9 5   H  1S         -0.00535   0.10850   0.09305   0.09305   0.09305
                           6         7         8         9
   6 2   H  1S          0.60981
   7 3   H  1S         -0.02196   0.60981
   8 4   H  1S         -0.02196  -0.02196   0.60981
   9 5   H  1S         -0.02196  -0.02196  -0.02196   0.60981
     MBS Gross orbital populations:
                         Total     Alpha     Beta      Spin
   1 1   C  1S          1.99385   0.99693   0.99693   0.00000
   2        2S          1.25787   0.62893   0.62893   0.00000
   3        2PX         1.01446   0.50723   0.50723   0.00000
   4        2PY         1.01446   0.50723   0.50723   0.00000
   5        2PZ         1.01446   0.50723   0.50723   0.00000
   6 2   H  1S          0.92623   0.46311   0.46311   0.00000
   7 3   H  1S          0.92623   0.46311   0.46311   0.00000
   8 4   H  1S          0.92623   0.46311   0.46311   0.00000
   9 5   H  1S          0.92623   0.46311   0.46311   0.00000
          MBS Condensed to atoms (all electrons):
               1          2          3          4          5
     1  C    4.765896   0.382297   0.382297   0.382297   0.382297
     2  H    0.382297   0.609809  -0.021959  -0.021959  -0.021959
     3  H    0.382297  -0.021959   0.609809  -0.021959  -0.021959
     4  H    0.382297  -0.021959  -0.021959   0.609809  -0.021959
     5  H    0.382297  -0.021959  -0.021959  -0.021959   0.609809
          MBS Atomic-Atomic Spin Densities.
               1          2          3          4          5
     1  C    0.000000   0.000000   0.000000   0.000000   0.000000
     2  H    0.000000   0.000000   0.000000   0.000000   0.000000
     3  H    0.000000   0.000000   0.000000   0.000000   0.000000
     4  H    0.000000   0.000000   0.000000   0.000000   0.000000
     5  H    0.000000   0.000000   0.000000   0.000000   0.000000
 MBS Mulliken charges and spin densities:
               1          2
     1  C   -0.295086   0.000000
     2  H    0.073772   0.000000
     3  H    0.073772   0.000000
     4  H    0.073772   0.000000
     5  H    0.073772   0.000000
 Sum of MBS Mulliken charges =  -0.00000   0.00000
 MBS Mulliken charges and spin densities with hydrogens summed into heavy atoms:
               1          2
     1  C   -0.000000   0.000000
 MBS Atomic Valencies and Mayer Atomic Bond Orders:
               1          2          3          4          5
     1  C    3.936011   0.984003   0.984003   0.984003   0.984003
     2  H    0.984003   0.994558   0.003518   0.003518   0.003518
     3  H    0.984003   0.003518   0.994558   0.003518   0.003518
     4  H    0.984003   0.003518   0.003518   0.994558   0.003518
     5  H    0.984003   0.003518   0.003518   0.003518   0.994558
 MBS Mayer-style numbers of lone pairs (5.000 valence pairs, 1.043 lone pairs):
               1
     1  C    1.179538
     2  H   -0.034165
     3  H   -0.034165
     4  H   -0.034165
     5  H   -0.034165
 BEBO parameters in MulMin, MxElBE=  0:
 ELP=  0.00000000000     EBEBO=-0.123175707349E-14 Sum=-0.123175707349E-14
 ELP=  0.00000000000     EBEBO=-0.123175707349E-14 EJK=-0.123175707349E-14  0.00000000000     Sum=-0.123175707349E-14
 0 EA=-0.615878536744E-15 EB=-0.615878536744E-15 ETot=-0.123175707349E-14
 1 EA=-0.615878536744E-15 EB=-0.615878536744E-15 ETot=-0.123175707349E-14
 2 EA=-0.615878536744E-15 EB=-0.615878536744E-15 ETot=-0.123175707349E-14
 3 EJ=-0.123175707349E-14 EK=  0.00000000000     ETot=-0.123175707349E-14
 4 EJ=-0.123175707349E-14 EK=  0.00000000000     ETot=-0.123175707349E-14
 5 EA=-0.615878536744E-15 EB=-0.615878536744E-15 ETot=-0.123175707349E-14
 Orbital energies and kinetic energies (alpha):
                                 1                 2
   1         (A1)--O         -11.204876         16.019915
   2         (A1)--O          -0.943122          1.214651
   3         (T2)--O          -0.545098          0.950836
   4         (T2)--O          -0.545098          0.950836
   5         (T2)--O          -0.545098          0.950836
   6         (A1)--V           0.041823          0.086354
   7         (T2)--V           0.077175          0.102492
   8         (T2)--V           0.077175          0.102492
   9         (T2)--V           0.077175          0.102492
  10         (T2)--V           0.152273          0.181625
  11         (T2)--V           0.152273          0.181625
  12         (T2)--V           0.152273          0.181625
  13         (A1)--V           0.188990          0.354058
  14         (T2)--V           0.300151          0.574100
  15         (T2)--V           0.300151          0.574100
  16         (T2)--V           0.300151          0.574100
  17         (A1)--V           0.365131          0.644496
  18         (T2)--V           0.547457          0.832540
  19         (T2)--V           0.547457          0.832540
  20         (T2)--V           0.547457          0.832540
  21         (E)--V            0.672009          0.919579
  22         (E)--V            0.672009          0.919579
  23         (T2)--V           0.751235          1.498684
  24         (T2)--V           0.751235          1.498684
  25         (T2)--V           0.751235          1.498684
  26         (A1)--V           0.832770          1.786950
  27         (A1)--V           0.865085          1.115201
  28         (T1)--V           1.059733          1.211180
  29         (T1)--V           1.059733          1.211180
  30         (T1)--V           1.059733          1.211180
  31         (T2)--V           1.245702          1.483272
  32         (T2)--V           1.245702          1.483272
  33         (T2)--V           1.245702          1.483272
  34         (T2)--V           1.347419          1.504769
  35         (T2)--V           1.347419          1.504769
  36         (T2)--V           1.347419          1.504769
  37         (E)--V            1.590728          1.815878
  38         (E)--V            1.590728          1.815878
  39         (T2)--V           1.684954          2.604374
  40         (T2)--V           1.684954          2.604374
  41         (T2)--V           1.684954          2.604374
  42         (A1)--V           1.826784          3.375947
  43         (T2)--V           2.644523          3.612808
  44         (T2)--V           2.644523          3.612808
  45         (T2)--V           2.644523          3.612808
  46         (A1)--V           2.729113          3.865871
  47         (T1)--V           3.270689          3.826849
  48         (T1)--V           3.270689          3.826849
  49         (T1)--V           3.270689          3.826849
  50         (T2)--V           3.481948          4.571350
  51         (T2)--V           3.481948          4.571350
  52         (T2)--V           3.481948          4.571350
  53         (E)--V            3.590067          4.544744
  54         (E)--V            3.590067          4.544744
  55         (T2)--V           3.683527          5.271218
  56         (T2)--V           3.683527          5.271218
  57         (T2)--V           3.683527          5.271218
  58         (T2)--V           4.243019          6.594259
  59         (T2)--V           4.243019          6.594259
  60         (T2)--V           4.243019          6.594259
  61         (A1)--V           4.330681          5.243122
  62         (E)--V            4.454187          5.349792
  63         (E)--V            4.454187          5.349792
  64         (T2)--V           4.565121          5.169555
  65         (T2)--V           4.565121          5.169555
  66         (T2)--V           4.565121          5.169555
  67         (T1)--V           4.798870          5.381388
  68         (T1)--V           4.798870          5.381388
  69         (T1)--V           4.798870          5.381388
  70         (A1)--V           5.255581          6.656401
  71         (T2)--V           6.064925          7.418286
  72         (T2)--V           6.064925          7.418286
  73         (T2)--V           6.064925          7.418286
  74         (A1)--V          25.476047         60.531412
 Total kinetic energy from orbitals= 4.017414832145D+01
                          Isotropic Fermi Contact Couplings
        Atom                 a.u.       MegaHertz       Gauss      10(-4) cm-1
     1  C(13)              0.00000       0.00000       0.00000       0.00000
     2  H(1)               0.00000       0.00000       0.00000       0.00000
     3  H(1)               0.00000       0.00000       0.00000       0.00000
     4  H(1)               0.00000       0.00000       0.00000       0.00000
     5  H(1)               0.00000       0.00000       0.00000       0.00000
 --------------------------------------------------------
       Center         ----  Spin Dipole Couplings  ----
                      3XX-RR        3YY-RR        3ZZ-RR
 --------------------------------------------------------
     1   Atom        0.000000      0.000000      0.000000
     2   Atom        0.000000      0.000000      0.000000
     3   Atom        0.000000      0.000000      0.000000
     4   Atom        0.000000      0.000000      0.000000
     5   Atom        0.000000      0.000000      0.000000
 --------------------------------------------------------
                        XY            XZ            YZ
 --------------------------------------------------------
     1   Atom        0.000000      0.000000      0.000000
     2   Atom        0.000000      0.000000      0.000000
     3   Atom        0.000000      0.000000      0.000000
     4   Atom        0.000000      0.000000      0.000000
     5   Atom        0.000000      0.000000      0.000000
 --------------------------------------------------------


 ---------------------------------------------------------------------------------
              Anisotropic Spin Dipole Couplings in Principal Axis System
 ---------------------------------------------------------------------------------

       Atom             a.u.   MegaHertz   Gauss  10(-4) cm-1        Axes

              Baa     0.0000     0.000     0.000     0.000  1.0000  0.0000  0.0000
     1 C(13)  Bbb     0.0000     0.000     0.000     0.000 -0.0000  1.0000  0.0000
              Bcc     0.0000     0.000     0.000     0.000  0.0000  0.0000  1.0000
 
              Baa     0.0000     0.000     0.000     0.000  1.0000  0.0000  0.0000
     2 H(1)   Bbb     0.0000     0.000     0.000     0.000 -0.0000  1.0000  0.0000
              Bcc     0.0000     0.000     0.000     0.000  0.0000  0.0000  1.0000
 
              Baa     0.0000     0.000     0.000     0.000  1.0000  0.0000  0.0000
     3 H(1)   Bbb     0.0000     0.000     0.000     0.000 -0.0000  1.0000  0.0000
              Bcc     0.0000     0.000     0.000     0.000  0.0000  0.0000  1.0000
 
              Baa     0.0000     0.000     0.000     0.000  1.0000  0.0000  0.0000
     4 H(1)   Bbb     0.0000     0.000     0.000     0.000 -0.0000  1.0000  0.0000
              Bcc     0.0000     0.000     0.000     0.000  0.0000  0.0000  1.0000
 
              Baa     0.0000     0.000     0.000     0.000  1.0000  0.0000  0.0000
     5 H(1)   Bbb     0.0000     0.000     0.000     0.000 -0.0000  1.0000  0.0000
              Bcc     0.0000     0.000     0.000     0.000  0.0000  0.0000  1.0000
 

 ---------------------------------------------------------------------------------


 Test job not archived.
 1\1\GINC-SMP-N72\SP\ROHF\CBSB3\C1H4\BLZ11\06-Feb-2022\0\\# SP ROHF/CBS
 B3 Pop=(Full) scf=tight IOp(6/27=122)\\CH4\\0,1\C\H,1,1.0883\H,1,1.088
 3,2,109.47122063\H,1,1.0883,2,109.47122063,3,240.,0\H,1,1.0883,2,109.4
 7122063,3,120.,0\\Version=ES64L-G16RevC.01\State=1-A1\HF=-40.2122549\R
 MSD=7.404e-10\Dipole=0.,0.,0.\Quadrupole=0.,0.,0.,0.,0.,0.\PG=TD [O(C1
 ),4C3(H1)]\\@


 A SUCCESSFUL PURSUIT OF SCIENCE MAKES A MAN THE
 BENEFACTOR OF ALL MANKIND OF EVERY AGE.
   --  JOSEPH PRIESTLEY, "EXPERIMENTS AND
 OBSERVATIONS ON DIFFERENT KINDS OF AIR", 1774
 File lengths (MBytes):  RWF=      6 Int=      0 D2E=      0 Chk=      1 Scr=      1
