 Entering Gaussian System, Link 0=g16
 Initial command:
 /ihome/crc/build/gaussian/c01/avx2/tar/g16/l1.exe "/scratch/slurm-5137938/Gau-16369.inp" -scrdir="/scratch/slurm-5137938/"
 Entering Link 1 = /ihome/crc/build/gaussian/c01/avx2/tar/g16/l1.exe PID=     16370.
  
 Copyright (c) 1988-2019, Gaussian, Inc.  All Rights Reserved.
  
 This is part of the Gaussian(R) 16 program.  It is based on
 the Gaussian(R) 09 system (copyright 2009, Gaussian, Inc.),
 the Gaussian(R) 03 system (copyright 2003, Gaussian, Inc.),
 the Gaussian(R) 98 system (copyright 1998, Gaussian, Inc.),
 the Gaussian(R) 94 system (copyright 1995, Gaussian, Inc.),
 the Gaussian 92(TM) system (copyright 1992, Gaussian, Inc.),
 the Gaussian 90(TM) system (copyright 1990, Gaussian, Inc.),
 the Gaussian 88(TM) system (copyright 1988, Gaussian, Inc.),
 the Gaussian 86(TM) system (copyright 1986, Carnegie Mellon
 University), and the Gaussian 82(TM) system (copyright 1983,
 Carnegie Mellon University). Gaussian is a federally registered
 trademark of Gaussian, Inc.
  
 This software contains proprietary and confidential information,
 including trade secrets, belonging to Gaussian, Inc.
  
 This software is provided under written license and may be
 used, copied, transmitted, or stored only in accord with that
 written license.
  
 The following legend is applicable only to US Government
 contracts under FAR:
  
                    RESTRICTED RIGHTS LEGEND
  
 Use, reproduction and disclosure by the US Government is
 subject to restrictions as set forth in subparagraphs (a)
 and (c) of the Commercial Computer Software - Restricted
 Rights clause in FAR 52.227-19.
  
 Gaussian, Inc.
 340 Quinnipiac St., Bldg. 40, Wallingford CT 06492
  
  
 ---------------------------------------------------------------
 Warning -- This program may not be used in any manner that
 competes with the business of Gaussian, Inc. or will provide
 assistance to any competitor of Gaussian, Inc.  The licensee
 of this program is prohibited from giving any competitor of
 Gaussian, Inc. access to this program.  By using this program,
 the user acknowledges that Gaussian, Inc. is engaged in the
 business of creating and licensing software in the field of
 computational chemistry and represents and warrants to the
 licensee that it is not a competitor of Gaussian, Inc. and that
 it will not use this program in any manner prohibited above.
 ---------------------------------------------------------------
  

 Cite this work as:
 Gaussian 16, Revision C.01,
 M. J. Frisch, G. W. Trucks, H. B. Schlegel, G. E. Scuseria, 
 M. A. Robb, J. R. Cheeseman, G. Scalmani, V. Barone, 
 G. A. Petersson, H. Nakatsuji, X. Li, M. Caricato, A. V. Marenich, 
 J. Bloino, B. G. Janesko, R. Gomperts, B. Mennucci, H. P. Hratchian, 
 J. V. Ortiz, A. F. Izmaylov, J. L. Sonnenberg, D. Williams-Young, 
 F. Ding, F. Lipparini, F. Egidi, J. Goings, B. Peng, A. Petrone, 
 T. Henderson, D. Ranasinghe, V. G. Zakrzewski, J. Gao, N. Rega, 
 G. Zheng, W. Liang, M. Hada, M. Ehara, K. Toyota, R. Fukuda, 
 J. Hasegawa, M. Ishida, T. Nakajima, Y. Honda, O. Kitao, H. Nakai, 
 T. Vreven, K. Throssell, J. A. Montgomery, Jr., J. E. Peralta, 
 F. Ogliaro, M. J. Bearpark, J. J. Heyd, E. N. Brothers, K. N. Kudin, 
 V. N. Staroverov, T. A. Keith, R. Kobayashi, J. Normand, 
 K. Raghavachari, A. P. Rendell, J. C. Burant, S. S. Iyengar, 
 J. Tomasi, M. Cossi, J. M. Millam, M. Klene, C. Adamo, R. Cammi, 
 J. W. Ochterski, R. L. Martin, K. Morokuma, O. Farkas, 
 J. B. Foresman, and D. J. Fox, Gaussian, Inc., Wallingford CT, 2019.
 
 ******************************************
 Gaussian 16:  ES64L-G16RevC.01  3-Jul-2019
                29-Jan-2022 
 ******************************************
 --------------------------------------------------
 # SP ROHF/CBSB3 Pop=(Full) scf=tight IOp(6/27=122)
 --------------------------------------------------
 1/38=1,172=1/1;
 2/12=2,17=6,18=5,40=1/2;
 3/5=12,11=2,25=1,30=1,116=101/1,2,3;
 4//1;
 5/5=2,32=2,38=5/2;
 6/7=3,27=122,28=1/1;
 99/5=1,9=1/99;
 --
 H2
 --
 Symbolic Z-matrix:
 Charge =  0 Multiplicity = 1
 H
 H                    1    R1
       Variables:
  R1                    0.743                    
 
                          Input orientation:                          
 ---------------------------------------------------------------------
 Center     Atomic      Atomic             Coordinates (Angstroms)
 Number     Number       Type             X           Y           Z
 ---------------------------------------------------------------------
      1          1           0        0.000000    0.000000    0.000000
      2          1           0        0.000000    0.000000    0.743000
 ---------------------------------------------------------------------
 Stoichiometry    H2
 Framework group  D*H[C*(H.H)]
 Deg. of freedom     1
 Full point group                 D*H     NOp   8
 Largest Abelian subgroup         D2H     NOp   8
 Largest concise Abelian subgroup C2      NOp   2
                         Standard orientation:                         
 ---------------------------------------------------------------------
 Center     Atomic      Atomic             Coordinates (Angstroms)
 Number     Number       Type             X           Y           Z
 ---------------------------------------------------------------------
      1          1           0        0.000000    0.000000    0.371500
      2          1           0        0.000000    0.000000   -0.371500
 ---------------------------------------------------------------------
 Rotational constants (GHZ):           0.0000000        1816.7050551        1816.7050551
 Standard basis: CBSB3 (5D, 7F)
 There are     6 symmetry adapted cartesian basis functions of AG  symmetry.
 There are     0 symmetry adapted cartesian basis functions of B1G symmetry.
 There are     2 symmetry adapted cartesian basis functions of B2G symmetry.
 There are     2 symmetry adapted cartesian basis functions of B3G symmetry.
 There are     0 symmetry adapted cartesian basis functions of AU  symmetry.
 There are     6 symmetry adapted cartesian basis functions of B1U symmetry.
 There are     2 symmetry adapted cartesian basis functions of B2U symmetry.
 There are     2 symmetry adapted cartesian basis functions of B3U symmetry.
 There are     6 symmetry adapted basis functions of AG  symmetry.
 There are     0 symmetry adapted basis functions of B1G symmetry.
 There are     2 symmetry adapted basis functions of B2G symmetry.
 There are     2 symmetry adapted basis functions of B3G symmetry.
 There are     0 symmetry adapted basis functions of AU  symmetry.
 There are     6 symmetry adapted basis functions of B1U symmetry.
 There are     2 symmetry adapted basis functions of B2U symmetry.
 There are     2 symmetry adapted basis functions of B3U symmetry.
    20 basis functions,    24 primitive gaussians,    20 cartesian basis functions
     1 alpha electrons        1 beta electrons
       nuclear repulsion energy         0.7122169730 Hartrees.
 NAtoms=    2 NActive=    2 NUniq=    1 SFac= 4.00D+00 NAtFMM=   60 NAOKFM=F Big=F
 Integral buffers will be    131072 words long.
 Raffenetti 2 integral format.
 Two-electron integral symmetry is turned on.
 One-electron integrals computed using PRISM.
 NBasis=    20 RedAO= T EigKep=  3.04D-03  NBF=     6     0     2     2     0     6     2     2
 NBsUse=    20 1.00D-06 EigRej= -1.00D+00 NBFU=     6     0     2     2     0     6     2     2
 ExpMin= 3.60D-02 ExpMax= 3.39D+01 ExpMxC= 3.39D+01 IAcc=3 IRadAn=         5 AccDes= 0.00D+00
 Harris functional with IExCor=  205 and IRadAn=       5 diagonalized for initial guess.
 HarFok:  IExCor=  205 AccDes= 0.00D+00 IRadAn=         5 IDoV= 1 UseB2=F ITyADJ=14
 ICtDFT=  3500011 ScaDFX=  1.000000  1.000000  1.000000  1.000000
 FoFCou: FMM=F IPFlag=           0 FMFlag=      100000 FMFlg1=           0
         NFxFlg=           0 DoJE=T BraDBF=F KetDBF=T FulRan=T
         wScrn=  0.000000 ICntrl=       500 IOpCl=  0 I1Cent=   200000004 NGrid=           0
         NMat0=    1 NMatS0=      1 NMatT0=    0 NMatD0=    1 NMtDS0=    0 NMtDT0=    0
 Petite list used in FoFCou.
 Initial guess orbital symmetries:
       Occupied  (SGG)
       Virtual   (SGU) (SGG) (SGU) (SGG) (PIU) (PIU) (SGU) (SGG)
                 (PIG) (PIG) (SGU) (SGG) (SGU) (PIU) (PIU) (SGG)
                 (PIG) (PIG) (SGU)
 The electronic state of the initial guess is 1-SGG.
 Keep R1 and R2 ints in memory in symmetry-blocked form, NReq=828246.
 Requested convergence on RMS density matrix=1.00D-08 within 128 cycles.
 Requested convergence on MAX density matrix=1.00D-06.
 Requested convergence on             energy=1.00D-06.
 No special actions if energy rises.
 SCF Done:  E(ROHF) =  -1.13297029093     A.U. after    7 cycles
            NFock=  7  Conv=0.46D-09     -V/T= 2.0103
 <Sx>= 0.0000 <Sy>= 0.0000 <Sz>= 0.0000 <S**2>= 0.0000 S= 0.0000
 <L.S>=  0.00000000000    
 Annihilation of the first spin contaminant:
 S**2 before annihilation     0.0000,   after     0.0000

 **********************************************************************

            Population analysis using the SCF Density.

 **********************************************************************

 Orbital symmetries:
       Occupied  (SGG)
       Virtual   (SGU) (SGG) (SGU) (SGG) (PIU) (PIU) (SGU) (SGG)
                 (PIG) (PIG) (SGU) (SGG) (SGU) (PIU) (PIU) (SGG)
                 (PIG) (PIG) (SGU)
 The electronic state is 1-SGG.
 Alpha  occ. eigenvalues --   -0.59371
 Alpha virt. eigenvalues --    0.07124   0.07312   0.24273   0.45494   0.67587
 Alpha virt. eigenvalues --    0.67587   0.73539   1.09936   1.11013   1.11013
 Alpha virt. eigenvalues --    1.59826   2.56603   2.75988   3.71278   3.71278
 Alpha virt. eigenvalues --    4.05979   4.53510   4.53510   5.96800
     Molecular Orbital Coefficients:
                           1         2         3         4         5
                       (SGG)--O  (SGU)--V  (SGG)--V  (SGU)--V  (SGG)--V
     Eigenvalues --    -0.59371   0.07124   0.07312   0.24273   0.45494
   1 1   H  1S          0.18748   0.01473  -0.05359  -0.09049  -0.05274
   2        2S          0.28059   0.07585   0.03914   0.00325  -0.91005
   3        3S          0.14123  -0.53461  -0.55451  -3.25301   1.50978
   4        4S         -0.00451   4.27055   0.84543   3.65724  -0.67005
   5        5PX         0.00000   0.00000   0.00000   0.00000   0.00000
   6        5PY         0.00000   0.00000   0.00000   0.00000   0.00000
   7        5PZ        -0.01200  -0.00172   0.00264  -0.01965   0.01156
   8        6PX         0.00000   0.00000   0.00000   0.00000   0.00000
   9        6PY         0.00000   0.00000   0.00000   0.00000   0.00000
  10        6PZ        -0.01835   0.03998   0.02036   0.02271  -0.03146
  11 2   H  1S          0.18748  -0.01473  -0.05359   0.09049  -0.05274
  12        2S          0.28059  -0.07585   0.03914  -0.00325  -0.91005
  13        3S          0.14123   0.53461  -0.55451   3.25301   1.50978
  14        4S         -0.00451  -4.27055   0.84543  -3.65724  -0.67005
  15        5PX         0.00000   0.00000   0.00000   0.00000   0.00000
  16        5PY         0.00000   0.00000   0.00000   0.00000   0.00000
  17        5PZ         0.01200  -0.00172  -0.00264  -0.01965  -0.01156
  18        6PX         0.00000   0.00000   0.00000   0.00000   0.00000
  19        6PY         0.00000   0.00000   0.00000   0.00000   0.00000
  20        6PZ         0.01835   0.03998  -0.02036   0.02271   0.03146
                           6         7         8         9        10
                       (PIU)--V  (PIU)--V  (SGU)--V  (SGG)--V  (PIG)--V
     Eigenvalues --     0.67587   0.67587   0.73539   1.09936   1.11013
   1 1   H  1S          0.00000   0.00000  -0.09808  -0.01060   0.00000
   2        2S          0.00000   0.00000  -1.16517   0.75900   0.00000
   3        3S          0.00000   0.00000   3.58744  -0.55321   0.00000
   4        4S          0.00000   0.00000  -2.35283   0.14111   0.00000
   5        5PX        -0.04789   0.00000   0.00000   0.00000   0.00000
   6        5PY         0.00000  -0.04789   0.00000   0.00000  -0.07455
   7        5PZ         0.00000   0.00000   0.02730  -0.06455   0.00000
   8        6PX         0.56801   0.00000   0.00000   0.00000   0.00000
   9        6PY         0.00000   0.56801   0.00000   0.00000   1.32971
  10        6PZ         0.00000   0.00000  -0.37287   1.02305   0.00000
  11 2   H  1S          0.00000   0.00000   0.09808  -0.01060   0.00000
  12        2S          0.00000   0.00000   1.16517   0.75900   0.00000
  13        3S          0.00000   0.00000  -3.58744  -0.55321   0.00000
  14        4S          0.00000   0.00000   2.35283   0.14111   0.00000
  15        5PX        -0.04789   0.00000   0.00000   0.00000   0.00000
  16        5PY         0.00000  -0.04789   0.00000   0.00000   0.07455
  17        5PZ         0.00000   0.00000   0.02730   0.06455   0.00000
  18        6PX         0.56801   0.00000   0.00000   0.00000   0.00000
  19        6PY         0.00000   0.56801   0.00000   0.00000  -1.32971
  20        6PZ         0.00000   0.00000  -0.37287  -1.02305   0.00000
                          11        12        13        14        15
                       (PIG)--V  (SGU)--V  (SGG)--V  (SGU)--V  (PIU)--V
     Eigenvalues --     1.11013   1.59826   2.56603   2.75988   3.71278
   1 1   H  1S          0.00000  -0.00361  -1.06904  -1.07074   0.00000
   2        2S          0.00000  10.67041   1.24301   3.62254   0.00000
   3        3S          0.00000   0.45205  -0.77954  -2.02478   0.00000
   4        4S          0.00000  -0.24937   0.27220   1.17608   0.00000
   5        5PX        -0.07455   0.00000   0.00000   0.00000   0.80954
   6        5PY         0.00000   0.00000   0.00000   0.00000   0.00000
   7        5PZ         0.00000   0.08325   0.17459  -0.25951   0.00000
   8        6PX         1.32971   0.00000   0.00000   0.00000  -0.39363
   9        6PY         0.00000   0.00000   0.00000   0.00000   0.00000
  10        6PZ         0.00000  -5.28801  -0.28229  -0.69974   0.00000
  11 2   H  1S          0.00000   0.00361  -1.06904   1.07074   0.00000
  12        2S          0.00000 -10.67041   1.24301  -3.62254   0.00000
  13        3S          0.00000  -0.45205  -0.77954   2.02478   0.00000
  14        4S          0.00000   0.24937   0.27220  -1.17608   0.00000
  15        5PX         0.07455   0.00000   0.00000   0.00000   0.80954
  16        5PY         0.00000   0.00000   0.00000   0.00000   0.00000
  17        5PZ         0.00000   0.08325  -0.17459  -0.25951   0.00000
  18        6PX        -1.32971   0.00000   0.00000   0.00000  -0.39363
  19        6PY         0.00000   0.00000   0.00000   0.00000   0.00000
  20        6PZ         0.00000  -5.28801   0.28229  -0.69974   0.00000
                          16        17        18        19        20
                       (PIU)--V  (SGG)--V  (PIG)--V  (PIG)--V  (SGU)--V
     Eigenvalues --     3.71278   4.05979   4.53510   4.53510   5.96800
   1 1   H  1S          0.00000   0.44599   0.00000   0.00000  -0.61677
   2        2S          0.00000  -0.61400   0.00000   0.00000   2.48714
   3        3S          0.00000   0.34406   0.00000   0.00000   0.63190
   4        4S          0.00000  -0.09493   0.00000   0.00000  -0.35281
   5        5PX         0.00000   0.00000   0.94140   0.00000   0.00000
   6        5PY         0.80954   0.00000   0.00000   0.94140   0.00000
   7        5PZ         0.00000   0.71963   0.00000   0.00000   1.37089
   8        6PX         0.00000   0.00000  -0.67816   0.00000   0.00000
   9        6PY        -0.39363   0.00000   0.00000  -0.67816   0.00000
  10        6PZ         0.00000  -0.51924   0.00000   0.00000  -1.58470
  11 2   H  1S          0.00000   0.44599   0.00000   0.00000   0.61677
  12        2S          0.00000  -0.61400   0.00000   0.00000  -2.48714
  13        3S          0.00000   0.34406   0.00000   0.00000  -0.63190
  14        4S          0.00000  -0.09493   0.00000   0.00000   0.35281
  15        5PX         0.00000   0.00000  -0.94140   0.00000   0.00000
  16        5PY         0.80954   0.00000   0.00000  -0.94140   0.00000
  17        5PZ         0.00000  -0.71963   0.00000   0.00000   1.37089
  18        6PX         0.00000   0.00000   0.67816   0.00000   0.00000
  19        6PY        -0.39363   0.00000   0.00000   0.67816   0.00000
  20        6PZ         0.00000   0.51924   0.00000   0.00000  -1.58470
     Alpha Density Matrix:
                           1         2         3         4         5
   1 1   H  1S          0.03515
   2        2S          0.05261   0.07873
   3        3S          0.02648   0.03963   0.01995
   4        4S         -0.00084  -0.00126  -0.00064   0.00002
   5        5PX        -0.00000  -0.00000  -0.00000   0.00000   0.00000
   6        5PY        -0.00000  -0.00000  -0.00000   0.00000   0.00000
   7        5PZ        -0.00225  -0.00337  -0.00169   0.00005   0.00000
   8        6PX        -0.00000  -0.00000  -0.00000   0.00000   0.00000
   9        6PY        -0.00000  -0.00000  -0.00000   0.00000   0.00000
  10        6PZ        -0.00344  -0.00515  -0.00259   0.00008   0.00000
  11 2   H  1S          0.03515   0.05261   0.02648  -0.00084  -0.00000
  12        2S          0.05261   0.07873   0.03963  -0.00126  -0.00000
  13        3S          0.02648   0.03963   0.01995  -0.00064  -0.00000
  14        4S         -0.00084  -0.00126  -0.00064   0.00002   0.00000
  15        5PX         0.00000   0.00000   0.00000  -0.00000  -0.00000
  16        5PY         0.00000   0.00000   0.00000  -0.00000   0.00000
  17        5PZ         0.00225   0.00337   0.00169  -0.00005  -0.00000
  18        6PX         0.00000   0.00000   0.00000  -0.00000  -0.00000
  19        6PY         0.00000   0.00000   0.00000  -0.00000   0.00000
  20        6PZ         0.00344   0.00515   0.00259  -0.00008  -0.00000
                           6         7         8         9        10
   6        5PY         0.00000
   7        5PZ         0.00000   0.00014
   8        6PX         0.00000   0.00000   0.00000
   9        6PY         0.00000   0.00000   0.00000   0.00000
  10        6PZ         0.00000   0.00022   0.00000   0.00000   0.00034
  11 2   H  1S         -0.00000  -0.00225  -0.00000  -0.00000  -0.00344
  12        2S         -0.00000  -0.00337  -0.00000  -0.00000  -0.00515
  13        3S         -0.00000  -0.00169  -0.00000  -0.00000  -0.00259
  14        4S          0.00000   0.00005   0.00000   0.00000   0.00008
  15        5PX         0.00000  -0.00000  -0.00000   0.00000  -0.00000
  16        5PY        -0.00000  -0.00000   0.00000  -0.00000  -0.00000
  17        5PZ        -0.00000  -0.00014  -0.00000  -0.00000  -0.00022
  18        6PX         0.00000  -0.00000  -0.00000   0.00000  -0.00000
  19        6PY        -0.00000  -0.00000   0.00000  -0.00000  -0.00000
  20        6PZ        -0.00000  -0.00022  -0.00000  -0.00000  -0.00034
                          11        12        13        14        15
  11 2   H  1S          0.03515
  12        2S          0.05261   0.07873
  13        3S          0.02648   0.03963   0.01995
  14        4S         -0.00084  -0.00126  -0.00064   0.00002
  15        5PX         0.00000   0.00000   0.00000  -0.00000   0.00000
  16        5PY         0.00000   0.00000   0.00000  -0.00000   0.00000
  17        5PZ         0.00225   0.00337   0.00169  -0.00005   0.00000
  18        6PX         0.00000   0.00000   0.00000  -0.00000   0.00000
  19        6PY         0.00000   0.00000   0.00000  -0.00000   0.00000
  20        6PZ         0.00344   0.00515   0.00259  -0.00008   0.00000
                          16        17        18        19        20
  16        5PY         0.00000
  17        5PZ         0.00000   0.00014
  18        6PX         0.00000   0.00000   0.00000
  19        6PY         0.00000   0.00000   0.00000   0.00000
  20        6PZ         0.00000   0.00022   0.00000   0.00000   0.00034
     Beta Density Matrix:
                           1         2         3         4         5
   1 1   H  1S          0.03515
   2        2S          0.05261   0.07873
   3        3S          0.02648   0.03963   0.01995
   4        4S         -0.00084  -0.00126  -0.00064   0.00002
   5        5PX        -0.00000  -0.00000  -0.00000   0.00000   0.00000
   6        5PY        -0.00000  -0.00000  -0.00000   0.00000   0.00000
   7        5PZ        -0.00225  -0.00337  -0.00169   0.00005   0.00000
   8        6PX        -0.00000  -0.00000  -0.00000   0.00000   0.00000
   9        6PY        -0.00000  -0.00000  -0.00000   0.00000   0.00000
  10        6PZ        -0.00344  -0.00515  -0.00259   0.00008   0.00000
  11 2   H  1S          0.03515   0.05261   0.02648  -0.00084  -0.00000
  12        2S          0.05261   0.07873   0.03963  -0.00126  -0.00000
  13        3S          0.02648   0.03963   0.01995  -0.00064  -0.00000
  14        4S         -0.00084  -0.00126  -0.00064   0.00002   0.00000
  15        5PX         0.00000   0.00000   0.00000  -0.00000  -0.00000
  16        5PY         0.00000   0.00000   0.00000  -0.00000   0.00000
  17        5PZ         0.00225   0.00337   0.00169  -0.00005  -0.00000
  18        6PX         0.00000   0.00000   0.00000  -0.00000  -0.00000
  19        6PY         0.00000   0.00000   0.00000  -0.00000   0.00000
  20        6PZ         0.00344   0.00515   0.00259  -0.00008  -0.00000
                           6         7         8         9        10
   6        5PY         0.00000
   7        5PZ         0.00000   0.00014
   8        6PX         0.00000   0.00000   0.00000
   9        6PY         0.00000   0.00000   0.00000   0.00000
  10        6PZ         0.00000   0.00022   0.00000   0.00000   0.00034
  11 2   H  1S         -0.00000  -0.00225  -0.00000  -0.00000  -0.00344
  12        2S         -0.00000  -0.00337  -0.00000  -0.00000  -0.00515
  13        3S         -0.00000  -0.00169  -0.00000  -0.00000  -0.00259
  14        4S          0.00000   0.00005   0.00000   0.00000   0.00008
  15        5PX         0.00000  -0.00000  -0.00000   0.00000  -0.00000
  16        5PY        -0.00000  -0.00000   0.00000  -0.00000  -0.00000
  17        5PZ        -0.00000  -0.00014  -0.00000  -0.00000  -0.00022
  18        6PX         0.00000  -0.00000  -0.00000   0.00000  -0.00000
  19        6PY        -0.00000  -0.00000   0.00000  -0.00000  -0.00000
  20        6PZ        -0.00000  -0.00022  -0.00000  -0.00000  -0.00034
                          11        12        13        14        15
  11 2   H  1S          0.03515
  12        2S          0.05261   0.07873
  13        3S          0.02648   0.03963   0.01995
  14        4S         -0.00084  -0.00126  -0.00064   0.00002
  15        5PX         0.00000   0.00000   0.00000  -0.00000   0.00000
  16        5PY         0.00000   0.00000   0.00000  -0.00000   0.00000
  17        5PZ         0.00225   0.00337   0.00169  -0.00005   0.00000
  18        6PX         0.00000   0.00000   0.00000  -0.00000   0.00000
  19        6PY         0.00000   0.00000   0.00000  -0.00000   0.00000
  20        6PZ         0.00344   0.00515   0.00259  -0.00008   0.00000
                          16        17        18        19        20
  16        5PY         0.00000
  17        5PZ         0.00000   0.00014
  18        6PX         0.00000   0.00000   0.00000
  19        6PY         0.00000   0.00000   0.00000   0.00000
  20        6PZ         0.00000   0.00022   0.00000   0.00000   0.00034
    Full Mulliken population analysis:
                           1         2         3         4         5
   1 1   H  1S          0.07030
   2        2S          0.07432   0.15746
   3        3S          0.01979   0.06253   0.03989
   4        4S         -0.00031  -0.00117  -0.00104   0.00004
   5        5PX         0.00000   0.00000   0.00000   0.00000   0.00000
   6        5PY         0.00000   0.00000   0.00000   0.00000   0.00000
   7        5PZ         0.00000   0.00000   0.00000   0.00000  -0.00000
   8        6PX         0.00000   0.00000   0.00000   0.00000   0.00000
   9        6PY         0.00000   0.00000   0.00000   0.00000   0.00000
  10        6PZ         0.00000   0.00000   0.00000   0.00000  -0.00000
  11 2   H  1S          0.01881   0.04461   0.01641  -0.00029   0.00000
  12        2S          0.04461   0.11421   0.05361  -0.00110   0.00000
  13        3S          0.01641   0.05361   0.03605  -0.00099   0.00000
  14        4S         -0.00029  -0.00110  -0.00099   0.00004  -0.00000
  15        5PX         0.00000   0.00000   0.00000   0.00000  -0.00000
  16        5PY         0.00000   0.00000   0.00000  -0.00000   0.00000
  17        5PZ         0.00175   0.00163   0.00021  -0.00000   0.00000
  18        6PX         0.00000   0.00000   0.00000   0.00000  -0.00000
  19        6PY         0.00000   0.00000   0.00000  -0.00000   0.00000
  20        6PZ         0.00386   0.00582   0.00122  -0.00001   0.00000
                           6         7         8         9        10
   6        5PY         0.00000
   7        5PZ         0.00000   0.00029
   8        6PX         0.00000  -0.00000   0.00000
   9        6PY         0.00000   0.00000   0.00000   0.00000
  10        6PZ        -0.00000   0.00025  -0.00000   0.00000   0.00067
  11 2   H  1S          0.00000   0.00175   0.00000   0.00000   0.00386
  12        2S          0.00000   0.00163   0.00000   0.00000   0.00582
  13        3S          0.00000   0.00021   0.00000   0.00000   0.00122
  14        4S         -0.00000  -0.00000  -0.00000  -0.00000  -0.00001
  15        5PX         0.00000   0.00000  -0.00000   0.00000   0.00000
  16        5PY        -0.00000   0.00000   0.00000  -0.00000   0.00000
  17        5PZ         0.00000   0.00013   0.00000   0.00000   0.00003
  18        6PX         0.00000   0.00000  -0.00000   0.00000   0.00000
  19        6PY        -0.00000   0.00000   0.00000  -0.00000   0.00000
  20        6PZ         0.00000   0.00003   0.00000   0.00000  -0.00012
                          11        12        13        14        15
  11 2   H  1S          0.07030
  12        2S          0.07432   0.15746
  13        3S          0.01979   0.06253   0.03989
  14        4S         -0.00031  -0.00117  -0.00104   0.00004
  15        5PX         0.00000   0.00000   0.00000   0.00000   0.00000
  16        5PY         0.00000   0.00000   0.00000   0.00000   0.00000
  17        5PZ         0.00000   0.00000   0.00000   0.00000   0.00000
  18        6PX         0.00000   0.00000   0.00000   0.00000   0.00000
  19        6PY         0.00000   0.00000   0.00000   0.00000   0.00000
  20        6PZ         0.00000   0.00000   0.00000   0.00000   0.00000
                          16        17        18        19        20
  16        5PY         0.00000
  17        5PZ         0.00000   0.00029
  18        6PX         0.00000   0.00000   0.00000
  19        6PY         0.00000   0.00000   0.00000   0.00000
  20        6PZ         0.00000   0.00025   0.00000   0.00000   0.00067
     Gross orbital populations:
                         Total     Alpha     Beta      Spin
   1 1   H  1S          0.24925   0.12462   0.12462   0.00000
   2        2S          0.51192   0.25596   0.25596   0.00000
   3        3S          0.22767   0.11384   0.11384   0.00000
   4        4S         -0.00484  -0.00242  -0.00242   0.00000
   5        5PX         0.00000   0.00000   0.00000   0.00000
   6        5PY         0.00000   0.00000   0.00000   0.00000
   7        5PZ         0.00429   0.00214   0.00214   0.00000
   8        6PX         0.00000   0.00000   0.00000   0.00000
   9        6PY         0.00000   0.00000   0.00000   0.00000
  10        6PZ         0.01172   0.00586   0.00586   0.00000
  11 2   H  1S          0.24925   0.12462   0.12462   0.00000
  12        2S          0.51192   0.25596   0.25596   0.00000
  13        3S          0.22767   0.11384   0.11384   0.00000
  14        4S         -0.00484  -0.00242  -0.00242   0.00000
  15        5PX         0.00000   0.00000   0.00000   0.00000
  16        5PY         0.00000   0.00000   0.00000   0.00000
  17        5PZ         0.00429   0.00214   0.00214   0.00000
  18        6PX         0.00000   0.00000   0.00000   0.00000
  19        6PY         0.00000   0.00000   0.00000   0.00000
  20        6PZ         0.01172   0.00586   0.00586   0.00000
          Condensed to atoms (all electrons):
               1          2
     1  H    0.577381   0.422619
     2  H    0.422619   0.577381
          Atomic-Atomic Spin Densities.
               1          2
     1  H    0.000000   0.000000
     2  H    0.000000   0.000000
 Mulliken charges and spin densities:
               1          2
     1  H    0.000000   0.000000
     2  H    0.000000   0.000000
 Sum of Mulliken charges =   0.00000   0.00000
 Mulliken charges and spin densities with hydrogens summed into heavy atoms:
               1          2

 Bonding Mulliken population analysis:
     Alpha  Bonding Density Matrix:
                           1         2         3         4         5
   1 1   H  1S          0.00000
   2        2S          0.00000   0.00000
   3        3S          0.00000   0.00000   0.00000
   4        4S          0.00000   0.00000   0.00000   0.00000
   5        5PX         0.00000   0.00000   0.00000   0.00000   0.00000
   6        5PY         0.00000   0.00000   0.00000   0.00000   0.00000
   7        5PZ         0.00000   0.00000   0.00000   0.00000   0.00000
   8        6PX         0.00000   0.00000   0.00000   0.00000   0.00000
   9        6PY         0.00000   0.00000   0.00000   0.00000   0.00000
  10        6PZ         0.00000   0.00000   0.00000   0.00000   0.00000
  11 2   H  1S          0.03515   0.05261   0.02648  -0.00084  -0.00000
  12        2S          0.05261   0.07873   0.03963  -0.00126  -0.00000
  13        3S          0.02648   0.03963   0.01995  -0.00064  -0.00000
  14        4S         -0.00084  -0.00126  -0.00064   0.00002   0.00000
  15        5PX         0.00000   0.00000   0.00000  -0.00000  -0.00000
  16        5PY         0.00000   0.00000   0.00000  -0.00000   0.00000
  17        5PZ         0.00225   0.00337   0.00169  -0.00005  -0.00000
  18        6PX         0.00000   0.00000   0.00000  -0.00000  -0.00000
  19        6PY         0.00000   0.00000   0.00000  -0.00000   0.00000
  20        6PZ         0.00344   0.00515   0.00259  -0.00008  -0.00000
                           6         7         8         9        10
   6        5PY         0.00000
   7        5PZ         0.00000   0.00000
   8        6PX         0.00000   0.00000   0.00000
   9        6PY         0.00000   0.00000   0.00000   0.00000
  10        6PZ         0.00000   0.00000   0.00000   0.00000   0.00000
  11 2   H  1S         -0.00000  -0.00225  -0.00000  -0.00000  -0.00344
  12        2S         -0.00000  -0.00337  -0.00000  -0.00000  -0.00515
  13        3S         -0.00000  -0.00169  -0.00000  -0.00000  -0.00259
  14        4S          0.00000   0.00005   0.00000   0.00000   0.00008
  15        5PX         0.00000  -0.00000  -0.00000   0.00000  -0.00000
  16        5PY        -0.00000  -0.00000   0.00000  -0.00000  -0.00000
  17        5PZ        -0.00000  -0.00014  -0.00000  -0.00000  -0.00022
  18        6PX         0.00000  -0.00000  -0.00000   0.00000  -0.00000
  19        6PY        -0.00000  -0.00000   0.00000  -0.00000  -0.00000
  20        6PZ        -0.00000  -0.00022  -0.00000  -0.00000  -0.00034
                          11        12        13        14        15
  11 2   H  1S          0.00000
  12        2S          0.00000   0.00000
  13        3S          0.00000   0.00000   0.00000
  14        4S          0.00000   0.00000   0.00000   0.00000
  15        5PX         0.00000   0.00000   0.00000   0.00000   0.00000
  16        5PY         0.00000   0.00000   0.00000   0.00000   0.00000
  17        5PZ         0.00000   0.00000   0.00000   0.00000   0.00000
  18        6PX         0.00000   0.00000   0.00000   0.00000   0.00000
  19        6PY         0.00000   0.00000   0.00000   0.00000   0.00000
  20        6PZ         0.00000   0.00000   0.00000   0.00000   0.00000
                          16        17        18        19        20
  16        5PY         0.00000
  17        5PZ         0.00000   0.00000
  18        6PX         0.00000   0.00000   0.00000
  19        6PY         0.00000   0.00000   0.00000   0.00000
  20        6PZ         0.00000   0.00000   0.00000   0.00000   0.00000
     Beta  Bonding Density Matrix:
                           1         2         3         4         5
   1 1   H  1S          0.00000
   2        2S          0.00000   0.00000
   3        3S          0.00000   0.00000   0.00000
   4        4S          0.00000   0.00000   0.00000   0.00000
   5        5PX         0.00000   0.00000   0.00000   0.00000   0.00000
   6        5PY         0.00000   0.00000   0.00000   0.00000   0.00000
   7        5PZ         0.00000   0.00000   0.00000   0.00000   0.00000
   8        6PX         0.00000   0.00000   0.00000   0.00000   0.00000
   9        6PY         0.00000   0.00000   0.00000   0.00000   0.00000
  10        6PZ         0.00000   0.00000   0.00000   0.00000   0.00000
  11 2   H  1S          0.03515   0.05261   0.02648  -0.00084  -0.00000
  12        2S          0.05261   0.07873   0.03963  -0.00126  -0.00000
  13        3S          0.02648   0.03963   0.01995  -0.00064  -0.00000
  14        4S         -0.00084  -0.00126  -0.00064   0.00002   0.00000
  15        5PX         0.00000   0.00000   0.00000  -0.00000  -0.00000
  16        5PY         0.00000   0.00000   0.00000  -0.00000   0.00000
  17        5PZ         0.00225   0.00337   0.00169  -0.00005  -0.00000
  18        6PX         0.00000   0.00000   0.00000  -0.00000  -0.00000
  19        6PY         0.00000   0.00000   0.00000  -0.00000   0.00000
  20        6PZ         0.00344   0.00515   0.00259  -0.00008  -0.00000
                           6         7         8         9        10
   6        5PY         0.00000
   7        5PZ         0.00000   0.00000
   8        6PX         0.00000   0.00000   0.00000
   9        6PY         0.00000   0.00000   0.00000   0.00000
  10        6PZ         0.00000   0.00000   0.00000   0.00000   0.00000
  11 2   H  1S         -0.00000  -0.00225  -0.00000  -0.00000  -0.00344
  12        2S         -0.00000  -0.00337  -0.00000  -0.00000  -0.00515
  13        3S         -0.00000  -0.00169  -0.00000  -0.00000  -0.00259
  14        4S          0.00000   0.00005   0.00000   0.00000   0.00008
  15        5PX         0.00000  -0.00000  -0.00000   0.00000  -0.00000
  16        5PY        -0.00000  -0.00000   0.00000  -0.00000  -0.00000
  17        5PZ        -0.00000  -0.00014  -0.00000  -0.00000  -0.00022
  18        6PX         0.00000  -0.00000  -0.00000   0.00000  -0.00000
  19        6PY        -0.00000  -0.00000   0.00000  -0.00000  -0.00000
  20        6PZ        -0.00000  -0.00022  -0.00000  -0.00000  -0.00034
                          11        12        13        14        15
  11 2   H  1S          0.00000
  12        2S          0.00000   0.00000
  13        3S          0.00000   0.00000   0.00000
  14        4S          0.00000   0.00000   0.00000   0.00000
  15        5PX         0.00000   0.00000   0.00000   0.00000   0.00000
  16        5PY         0.00000   0.00000   0.00000   0.00000   0.00000
  17        5PZ         0.00000   0.00000   0.00000   0.00000   0.00000
  18        6PX         0.00000   0.00000   0.00000   0.00000   0.00000
  19        6PY         0.00000   0.00000   0.00000   0.00000   0.00000
  20        6PZ         0.00000   0.00000   0.00000   0.00000   0.00000
                          16        17        18        19        20
  16        5PY         0.00000
  17        5PZ         0.00000   0.00000
  18        6PX         0.00000   0.00000   0.00000
  19        6PY         0.00000   0.00000   0.00000   0.00000
  20        6PZ         0.00000   0.00000   0.00000   0.00000   0.00000
    Full Bonding Mulliken population analysis:
                           1         2         3         4         5
   1 1   H  1S          0.00000
   2        2S          0.00000   0.00000
   3        3S          0.00000   0.00000   0.00000
   4        4S          0.00000   0.00000   0.00000   0.00000
   5        5PX         0.00000   0.00000   0.00000   0.00000   0.00000
   6        5PY         0.00000   0.00000   0.00000   0.00000   0.00000
   7        5PZ         0.00000   0.00000   0.00000   0.00000   0.00000
   8        6PX         0.00000   0.00000   0.00000   0.00000   0.00000
   9        6PY         0.00000   0.00000   0.00000   0.00000   0.00000
  10        6PZ         0.00000   0.00000   0.00000   0.00000   0.00000
  11 2   H  1S          0.01881   0.04461   0.01641  -0.00029   0.00000
  12        2S          0.04461   0.11421   0.05361  -0.00110   0.00000
  13        3S          0.01641   0.05361   0.03605  -0.00099   0.00000
  14        4S         -0.00029  -0.00110  -0.00099   0.00004  -0.00000
  15        5PX         0.00000   0.00000   0.00000   0.00000  -0.00000
  16        5PY         0.00000   0.00000   0.00000  -0.00000   0.00000
  17        5PZ         0.00175   0.00163   0.00021  -0.00000   0.00000
  18        6PX         0.00000   0.00000   0.00000   0.00000  -0.00000
  19        6PY         0.00000   0.00000   0.00000  -0.00000   0.00000
  20        6PZ         0.00386   0.00582   0.00122  -0.00001   0.00000
                           6         7         8         9        10
   6        5PY         0.00000
   7        5PZ         0.00000   0.00000
   8        6PX         0.00000   0.00000   0.00000
   9        6PY         0.00000   0.00000   0.00000   0.00000
  10        6PZ         0.00000   0.00000   0.00000   0.00000   0.00000
  11 2   H  1S          0.00000   0.00175   0.00000   0.00000   0.00386
  12        2S          0.00000   0.00163   0.00000   0.00000   0.00582
  13        3S          0.00000   0.00021   0.00000   0.00000   0.00122
  14        4S         -0.00000  -0.00000  -0.00000  -0.00000  -0.00001
  15        5PX         0.00000   0.00000  -0.00000   0.00000   0.00000
  16        5PY        -0.00000   0.00000   0.00000  -0.00000   0.00000
  17        5PZ         0.00000   0.00013   0.00000   0.00000   0.00003
  18        6PX         0.00000   0.00000  -0.00000   0.00000   0.00000
  19        6PY        -0.00000   0.00000   0.00000  -0.00000   0.00000
  20        6PZ         0.00000   0.00003   0.00000   0.00000  -0.00012
                          11        12        13        14        15
  11 2   H  1S          0.00000
  12        2S          0.00000   0.00000
  13        3S          0.00000   0.00000   0.00000
  14        4S          0.00000   0.00000   0.00000   0.00000
  15        5PX         0.00000   0.00000   0.00000   0.00000   0.00000
  16        5PY         0.00000   0.00000   0.00000   0.00000   0.00000
  17        5PZ         0.00000   0.00000   0.00000   0.00000   0.00000
  18        6PX         0.00000   0.00000   0.00000   0.00000   0.00000
  19        6PY         0.00000   0.00000   0.00000   0.00000   0.00000
  20        6PZ         0.00000   0.00000   0.00000   0.00000   0.00000
                          16        17        18        19        20
  16        5PY         0.00000
  17        5PZ         0.00000   0.00000
  18        6PX         0.00000   0.00000   0.00000
  19        6PY         0.00000   0.00000   0.00000   0.00000
  20        6PZ         0.00000   0.00000   0.00000   0.00000   0.00000
     Bonding Gross orbital populations:
                         Total     Alpha     Beta      Spin
   1 1   H  1S          0.08515   0.04258   0.04258   0.00000
   2        2S          0.21877   0.10939   0.10939   0.00000
   3        3S          0.10651   0.05325   0.05325   0.00000
   4        4S         -0.00235  -0.00118  -0.00118   0.00000
   5        5PX         0.00000   0.00000   0.00000   0.00000
   6        5PY         0.00000   0.00000   0.00000   0.00000
   7        5PZ         0.00375   0.00187   0.00187   0.00000
   8        6PX         0.00000   0.00000   0.00000   0.00000
   9        6PY         0.00000   0.00000   0.00000   0.00000
  10        6PZ         0.01079   0.00540   0.00540   0.00000
  11 2   H  1S          0.08515   0.04258   0.04258   0.00000
  12        2S          0.21877   0.10939   0.10939   0.00000
  13        3S          0.10651   0.05325   0.05325   0.00000
  14        4S         -0.00235  -0.00118  -0.00118   0.00000
  15        5PX        -0.00000  -0.00000  -0.00000   0.00000
  16        5PY        -0.00000  -0.00000  -0.00000   0.00000
  17        5PZ         0.00375   0.00187   0.00187   0.00000
  18        6PX        -0.00000  -0.00000  -0.00000   0.00000
  19        6PY        -0.00000  -0.00000  -0.00000   0.00000
  20        6PZ         0.01079   0.00540   0.00540   0.00000
          Bonding Condensed to atoms (all electrons):
               1          2
     1  H    0.000000   0.422619
     2  H    0.422619   0.000000
          Bonding Atomic-Atomic Spin Densities.
               1          2
     1  H    0.000000   0.000000
     2  H    0.000000   0.000000
 Bonding Mulliken charges and spin densities:
               1          2
     1  H    0.577381   0.000000
     2  H    0.577381   0.000000
 Sum of Bonding Mulliken charges =   1.15476   0.00000
 Bonding Mulliken charges and spin densities with hydrogens summed into heavy atoms:
               1          2
 Electronic spatial extent (au):  <R**2>=              5.1735
 Charge=              0.0000 electrons
 Dipole moment (field-independent basis, Debye):
    X=              0.0000    Y=             -0.0000    Z=             -0.0000  Tot=              0.0000
 Quadrupole moment (field-independent basis, Debye-Ang):
   XX=             -2.0895   YY=             -2.0895   ZZ=             -1.4537
   XY=             -0.0000   XZ=             -0.0000   YZ=              0.0000
 Traceless Quadrupole moment (field-independent basis, Debye-Ang):
   XX=             -0.2120   YY=             -0.2120   ZZ=              0.4239
   XY=             -0.0000   XZ=             -0.0000   YZ=              0.0000
 Octapole moment (field-independent basis, Debye-Ang**2):
  XXX=             -0.0000  YYY=             -0.0000  ZZZ=              0.0000  XYY=             -0.0000
  XXY=              0.0000  XXZ=              0.0000  XZZ=             -0.0000  YZZ=             -0.0000
  YYZ=              0.0000  XYZ=              0.0000
 Hexadecapole moment (field-independent basis, Debye-Ang**3):
 XXXX=             -2.0709 YYYY=             -2.0709 ZZZZ=             -2.8094 XXXY=             -0.0000
 XXXZ=              0.0000 YYYX=             -0.0000 YYYZ=              0.0000 ZZZX=              0.0000
 ZZZY=              0.0000 XXYY=             -0.6903 XXZZ=             -0.8327 YYZZ=             -0.8327
 XXYZ=              0.0000 YYXZ=              0.0000 ZZXY=             -0.0000
 N-N= 7.122169729744D-01 E-N=-3.624379144488D+00  KE= 1.121429052490D+00
 Symmetry AG   KE= 1.121429052490D+00
 Symmetry B1G  KE= 0.000000000000D+00
 Symmetry B2G  KE= 4.010514751576D-34
 Symmetry B3G  KE= 4.010514751576D-34
 Symmetry AU   KE= 0.000000000000D+00
 Symmetry B1U  KE= 4.053443683402D-30
 Symmetry B2U  KE= 4.257488098942D-35
 Symmetry B3U  KE= 4.257488098942D-35
 Symmetry AG   SP= 0.000000000000D+00
 Symmetry B1G  SP= 0.000000000000D+00
 Symmetry B2G  SP= 0.000000000000D+00
 Symmetry B3G  SP= 0.000000000000D+00
 Symmetry AU   SP= 0.000000000000D+00
 Symmetry B1U  SP= 0.000000000000D+00
 Symmetry B2U  SP= 0.000000000000D+00
 Symmetry B3U  SP= 0.000000000000D+00
     Alpha  MBS Density Matrix:
                           1         2
   1 1   H  1S          0.30158
   2 2   H  1S          0.30158   0.30158
     Beta  MBS Density Matrix:
                           1         2
   1 1   H  1S          0.30158
   2 2   H  1S          0.30158   0.30158
    Full MBS Mulliken population analysis:
                           1         2
   1 1   H  1S          0.60317
   2 2   H  1S          0.39683   0.60317
     MBS Gross orbital populations:
                         Total     Alpha     Beta      Spin
   1 1   H  1S          1.00000   0.50000   0.50000   0.00000
   2 2   H  1S          1.00000   0.50000   0.50000   0.00000
          MBS Condensed to atoms (all electrons):
               1          2
     1  H    0.603169   0.396831
     2  H    0.396831   0.603169
          MBS Atomic-Atomic Spin Densities.
               1          2
     1  H    0.000000   0.000000
     2  H    0.000000   0.000000
 MBS Mulliken charges and spin densities:
               1          2
     1  H    0.000000   0.000000
     2  H   -0.000000   0.000000
 Sum of MBS Mulliken charges =   0.00000   0.00000
 MBS Mulliken charges and spin densities with hydrogens summed into heavy atoms:
               1          2
 MBS Atomic Valencies and Mayer Atomic Bond Orders:
               1          2
     1  H    1.000000   1.000000
     2  H    1.000000   1.000000
 MBS Mayer-style numbers of lone pairs (1.000 valence pairs, 0.000 lone pairs):
               1
     1  H   -0.000000
     2  H    0.000000
 BEBO parameters in MulMin, MxElBE=  0:
 ELP=  0.00000000000     EBEBO=  0.00000000000     Sum=  0.00000000000    
 ELP=  0.00000000000     EBEBO=  0.00000000000     EJK=  0.00000000000      0.00000000000     Sum=  0.00000000000    
 0 EA=  0.00000000000     EB=  0.00000000000     ETot=  0.00000000000    
 1 EA=  0.00000000000     EB=  0.00000000000     ETot=  0.00000000000    
 2 EA=  0.00000000000     EB=  0.00000000000     ETot=  0.00000000000    
 3 EJ=  0.00000000000     EK=  0.00000000000     ETot=  0.00000000000    
 4 EJ=  0.00000000000     EK=  0.00000000000     ETot=  0.00000000000    
 5 EA=  0.00000000000     EB=  0.00000000000     ETot=  0.00000000000    
 Orbital energies and kinetic energies (alpha):
                                 1                 2
   1         (SGG)--O         -0.593712          0.560715
   2         (SGU)--V          0.071241          0.088540
   3         (SGG)--V          0.073120          0.102652
   4         (SGU)--V          0.242731          0.382778
   5         (SGG)--V          0.454940          0.643961
   6         (PIU)--V          0.675867          0.847023
   7         (PIU)--V          0.675867          0.847023
   8         (SGU)--V          0.735389          1.122922
   9         (SGG)--V          1.099362          1.241979
  10         (PIG)--V          1.110134          1.204371
  11         (PIG)--V          1.110134          1.204371
  12         (SGU)--V          1.598255          1.691637
  13         (SGG)--V          2.566030          3.633337
  14         (SGU)--V          2.759877          4.045821
  15         (PIU)--V          3.712777          4.277607
  16         (PIU)--V          3.712777          4.277607
  17         (SGG)--V          4.059787          4.833776
  18         (PIG)--V          4.535101          5.116149
  19         (PIG)--V          4.535101          5.116149
  20         (SGU)--V          5.967998          6.836193
 Total kinetic energy from orbitals= 1.121429052490D+00
                          Isotropic Fermi Contact Couplings
        Atom                 a.u.       MegaHertz       Gauss      10(-4) cm-1
     1  H(1)               0.00000       0.00000       0.00000       0.00000
     2  H(1)               0.00000       0.00000       0.00000       0.00000
 --------------------------------------------------------
       Center         ----  Spin Dipole Couplings  ----
                      3XX-RR        3YY-RR        3ZZ-RR
 --------------------------------------------------------
     1   Atom        0.000000      0.000000      0.000000
     2   Atom        0.000000      0.000000      0.000000
 --------------------------------------------------------
                        XY            XZ            YZ
 --------------------------------------------------------
     1   Atom        0.000000      0.000000      0.000000
     2   Atom        0.000000      0.000000      0.000000
 --------------------------------------------------------


 ---------------------------------------------------------------------------------
              Anisotropic Spin Dipole Couplings in Principal Axis System
 ---------------------------------------------------------------------------------

       Atom             a.u.   MegaHertz   Gauss  10(-4) cm-1        Axes

              Baa     0.0000     0.000     0.000     0.000  1.0000  0.0000  0.0000
     1 H(1)   Bbb     0.0000     0.000     0.000     0.000 -0.0000  1.0000  0.0000
              Bcc     0.0000     0.000     0.000     0.000  0.0000  0.0000  1.0000
 
              Baa     0.0000     0.000     0.000     0.000  1.0000  0.0000  0.0000
     2 H(1)   Bbb     0.0000     0.000     0.000     0.000 -0.0000  1.0000  0.0000
              Bcc     0.0000     0.000     0.000     0.000  0.0000  0.0000  1.0000
 

 ---------------------------------------------------------------------------------


 Test job not archived.
 1\1\GINC-SMP-N33\SP\ROHF\CBSB3\H2\BLZ11\29-Jan-2022\0\\# SP ROHF/CBSB3
  Pop=(Full) scf=tight IOp(6/27=122)\\H2\\0,1\H\H,1,0.743\\Version=ES64
 L-G16RevC.01\State=1-SGG\HF=-1.1329703\RMSD=4.589e-10\Dipole=0.,0.,0.\
 Quadrupole=-0.1575803,-0.1575803,0.3151607,0.,0.,0.\PG=D*H [C*(H1.H1)]
 \\@


 WHEN IT COMES TO CASH FLOW, IT SEEMS LIKE THE TIDE IS ALWAYS GOING OUT.
 File lengths (MBytes):  RWF=      6 Int=      0 D2E=      0 Chk=      1 Scr=      1
/var/spool/slurmd/job5137938/slurm_script: line 22: crc-job-stats.py: command not found
