 Entering Gaussian System, Link 0=g16
 Initial command:
 /ihome/crc/build/gaussian/c01/avx2/tar/g16/l1.exe "/scratch/slurm-3826440/Gau-95616.inp" -scrdir="/scratch/slurm-3826440/"
 Entering Link 1 = /ihome/crc/build/gaussian/c01/avx2/tar/g16/l1.exe PID=     95617.
  
 Copyright (c) 1988-2019, Gaussian, Inc.  All Rights Reserved.
  
 This is part of the Gaussian(R) 16 program.  It is based on
 the Gaussian(R) 09 system (copyright 2009, Gaussian, Inc.),
 the Gaussian(R) 03 system (copyright 2003, Gaussian, Inc.),
 the Gaussian(R) 98 system (copyright 1998, Gaussian, Inc.),
 the Gaussian(R) 94 system (copyright 1995, Gaussian, Inc.),
 the Gaussian 92(TM) system (copyright 1992, Gaussian, Inc.),
 the Gaussian 90(TM) system (copyright 1990, Gaussian, Inc.),
 the Gaussian 88(TM) system (copyright 1988, Gaussian, Inc.),
 the Gaussian 86(TM) system (copyright 1986, Carnegie Mellon
 University), and the Gaussian 82(TM) system (copyright 1983,
 Carnegie Mellon University). Gaussian is a federally registered
 trademark of Gaussian, Inc.
  
 This software contains proprietary and confidential information,
 including trade secrets, belonging to Gaussian, Inc.
  
 This software is provided under written license and may be
 used, copied, transmitted, or stored only in accord with that
 written license.
  
 The following legend is applicable only to US Government
 contracts under FAR:
  
                    RESTRICTED RIGHTS LEGEND
  
 Use, reproduction and disclosure by the US Government is
 subject to restrictions as set forth in subparagraphs (a)
 and (c) of the Commercial Computer Software - Restricted
 Rights clause in FAR 52.227-19.
  
 Gaussian, Inc.
 340 Quinnipiac St., Bldg. 40, Wallingford CT 06492
  
  
 ---------------------------------------------------------------
 Warning -- This program may not be used in any manner that
 competes with the business of Gaussian, Inc. or will provide
 assistance to any competitor of Gaussian, Inc.  The licensee
 of this program is prohibited from giving any competitor of
 Gaussian, Inc. access to this program.  By using this program,
 the user acknowledges that Gaussian, Inc. is engaged in the
 business of creating and licensing software in the field of
 computational chemistry and represents and warrants to the
 licensee that it is not a competitor of Gaussian, Inc. and that
 it will not use this program in any manner prohibited above.
 ---------------------------------------------------------------
  

 Cite this work as:
 Gaussian 16, Revision C.01,
 M. J. Frisch, G. W. Trucks, H. B. Schlegel, G. E. Scuseria, 
 M. A. Robb, J. R. Cheeseman, G. Scalmani, V. Barone, 
 G. A. Petersson, H. Nakatsuji, X. Li, M. Caricato, A. V. Marenich, 
 J. Bloino, B. G. Janesko, R. Gomperts, B. Mennucci, H. P. Hratchian, 
 J. V. Ortiz, A. F. Izmaylov, J. L. Sonnenberg, D. Williams-Young, 
 F. Ding, F. Lipparini, F. Egidi, J. Goings, B. Peng, A. Petrone, 
 T. Henderson, D. Ranasinghe, V. G. Zakrzewski, J. Gao, N. Rega, 
 G. Zheng, W. Liang, M. Hada, M. Ehara, K. Toyota, R. Fukuda, 
 J. Hasegawa, M. Ishida, T. Nakajima, Y. Honda, O. Kitao, H. Nakai, 
 T. Vreven, K. Throssell, J. A. Montgomery, Jr., J. E. Peralta, 
 F. Ogliaro, M. J. Bearpark, J. J. Heyd, E. N. Brothers, K. N. Kudin, 
 V. N. Staroverov, T. A. Keith, R. Kobayashi, J. Normand, 
 K. Raghavachari, A. P. Rendell, J. C. Burant, S. S. Iyengar, 
 J. Tomasi, M. Cossi, J. M. Millam, M. Klene, C. Adamo, R. Cammi, 
 J. W. Ochterski, R. L. Martin, K. Morokuma, O. Farkas, 
 J. B. Foresman, and D. J. Fox, Gaussian, Inc., Wallingford CT, 2019.
 
 ******************************************
 Gaussian 16:  ES64L-G16RevC.01  3-Jul-2019
                 4-Aug-2021 
 ******************************************
 --------------------------------------------------
 # SP ROHF/CBSB3 Pop=(Full) scf=tight IOp(6/27=122)
 --------------------------------------------------
 1/38=1,172=1/1;
 2/12=2,17=6,18=5,40=1/2;
 3/5=12,11=2,25=1,30=1,116=101/1,2,3;
 4//1;
 5/5=2,32=2,38=5/2;
 6/7=3,27=122,28=1/1;
 99/5=1,9=1/99;
 ------
 H2C2H2
 ------
 Symbolic Z-matrix:
 Charge =  0 Multiplicity = 1
 C                    -0.19194   0.60872  -0.18121 
 C                     0.19194  -0.60872   0.18121 
 H                     1.10925  -1.05276  -0.191 
 H                    -0.39495  -1.2126    0.86536 
 H                     0.39495   1.2126   -0.86536 
 H                    -1.10925   1.05276   0.191 
 
                          Input orientation:                          
 ---------------------------------------------------------------------
 Center     Atomic      Atomic             Coordinates (Angstroms)
 Number     Number       Type             X           Y           Z
 ---------------------------------------------------------------------
      1          6           0       -0.191937    0.608723   -0.181205
      2          6           0        0.191937   -0.608723    0.181205
      3          1           0        1.109246   -1.052763   -0.191001
      4          1           0       -0.394953   -1.212595    0.865355
      5          1           0        0.394953    1.212595   -0.865355
      6          1           0       -1.109246    1.052763    0.191001
 ---------------------------------------------------------------------
                    Distance matrix (angstroms):
                    1          2          3          4          5
     1  C    0.000000
     2  C    1.326980   0.000000
     3  H    2.110381   1.084972   0.000000
     4  H    2.110380   1.084971   1.845006   0.000000
     5  H    1.084971   2.110380   2.469173   3.082346   0.000000
     6  H    1.084972   2.110381   3.082348   2.469173   1.845006
                    6
     6  H    0.000000
 Stoichiometry    C2H4
 Framework group  C2H[SGH(C2H4)]
 Deg. of freedom     5
 Full point group                 C2H     NOp   4
 Largest Abelian subgroup         C2H     NOp   4
 Largest concise Abelian subgroup C2      NOp   2
                         Standard orientation:                         
 ---------------------------------------------------------------------
 Center     Atomic      Atomic             Coordinates (Angstroms)
 Number     Number       Type             X           Y           Z
 ---------------------------------------------------------------------
      1          6           0       -0.000000    0.663490   -0.000000
      2          6           0        0.000000   -0.663490   -0.000000
      3          1           0        0.922503   -1.234587    0.000000
      4          1           0       -0.922503   -1.234586   -0.000000
      5          1           0        0.922503    1.234586   -0.000000
      6          1           0       -0.922503    1.234587    0.000000
 ---------------------------------------------------------------------
 Rotational constants (GHZ):         147.3113693          30.2445175          25.0927264
 Standard basis: CBSB3 (5D, 7F)
 There are    43 symmetry adapted cartesian basis functions of AG  symmetry.
 There are    16 symmetry adapted cartesian basis functions of BG  symmetry.
 There are    16 symmetry adapted cartesian basis functions of AU  symmetry.
 There are    43 symmetry adapted cartesian basis functions of BU  symmetry.
 There are    39 symmetry adapted basis functions of AG  symmetry.
 There are    15 symmetry adapted basis functions of BG  symmetry.
 There are    15 symmetry adapted basis functions of AU  symmetry.
 There are    39 symmetry adapted basis functions of BU  symmetry.
   108 basis functions,   152 primitive gaussians,   118 cartesian basis functions
     8 alpha electrons        8 beta electrons
       nuclear repulsion energy        33.4254144197 Hartrees.
 NAtoms=    6 NActive=    6 NUniq=    3 SFac= 4.00D+00 NAtFMM=   60 NAOKFM=F Big=F
 Integral buffers will be    131072 words long.
 Raffenetti 2 integral format.
 Two-electron integral symmetry is turned on.
 One-electron integrals computed using PRISM.
 NBasis=   108 RedAO= T EigKep=  1.18D-04  NBF=    39    15    15    39
 NBsUse=   108 1.00D-06 EigRej= -1.00D+00 NBFU=    39    15    15    39
 ExpMin= 3.60D-02 ExpMax= 4.56D+03 ExpMxC= 6.82D+02 IAcc=3 IRadAn=         5 AccDes= 0.00D+00
 Harris functional with IExCor=  205 and IRadAn=       5 diagonalized for initial guess.
 HarFok:  IExCor=  205 AccDes= 0.00D+00 IRadAn=         5 IDoV= 1 UseB2=F ITyADJ=14
 ICtDFT=  3500011 ScaDFX=  1.000000  1.000000  1.000000  1.000000
 FoFCou: FMM=F IPFlag=           0 FMFlag=      100000 FMFlg1=           0
         NFxFlg=           0 DoJE=T BraDBF=F KetDBF=T FulRan=T
         wScrn=  0.000000 ICntrl=       500 IOpCl=  0 I1Cent=   200000004 NGrid=           0
         NMat0=    1 NMatS0=      1 NMatT0=    0 NMatD0=    1 NMtDS0=    0 NMtDT0=    0
 Petite list used in FoFCou.
 Initial guess orbital symmetries:
       Occupied  (AG) (BU) (AG) (BU) (BU) (AG) (AG) (AU)
       Virtual   (BG) (AG) (BU) (BU) (AU) (AG) (AG) (AG) (BU) (BG)
                 (BU) (AG) (BU) (BU) (AG) (BU) (BU) (AG) (AG) (BU)
                 (BG) (AG) (AU) (BU) (BU) (BG) (AU) (BU) (AG) (AU)
                 (AG) (BU) (AG) (AG) (AG) (BU) (BG) (BG) (AU) (AG)
                 (BU) (BU) (BG) (BU) (AU) (BU) (AG) (AG) (AG) (BU)
                 (BU) (AG) (AG) (BU) (BU) (AU) (AU) (AG) (BG) (BG)
                 (AG) (BU) (AU) (BU) (AG) (BG) (AU) (BG) (AG) (AG)
                 (BU) (BU) (BG) (BU) (AG) (AG) (AU) (AU) (AG) (BU)
                 (BU) (AG) (BU) (AU) (BG) (AG) (BG) (BU) (AU) (AG)
                 (BG) (BU) (AG) (BU) (AG) (BU) (AG) (BU) (AG) (BU)
 The electronic state of the initial guess is 1-AG.
 Keep R1 and R2 ints in memory in symmetry-blocked form, NReq=21857055.
 Requested convergence on RMS density matrix=1.00D-08 within 128 cycles.
 Requested convergence on MAX density matrix=1.00D-06.
 Requested convergence on             energy=1.00D-06.
 No special actions if energy rises.
 SCF Done:  E(ROHF) =  -78.0621885552     A.U. after    9 cycles
            NFock=  9  Conv=0.69D-08     -V/T= 2.0014
 <Sx>= 0.0000 <Sy>= 0.0000 <Sz>= 0.0000 <S**2>=-0.0000 S=-0.0000
 <L.S>=  0.00000000000    
 Annihilation of the first spin contaminant:
 S**2 before annihilation    -0.0000,   after     0.0000

 **********************************************************************

            Population analysis using the SCF Density.

 **********************************************************************

 Orbital symmetries:
       Occupied  (AG) (BU) (AG) (BU) (BU) (AG) (AG) (AU)
       Virtual   (AG) (BU) (BU) (AG) (BG) (AU) (AG) (BU) (AG) (BU)
                 (BU) (BG) (AG) (AG) (BU) (BU) (AG) (BU) (AG) (BU)
                 (AG) (BG) (AU) (BU) (BU) (BU) (BG) (AG) (AU) (AG)
                 (AU) (BU) (AG) (AG) (AG) (BU) (BG) (BG) (AU) (BU)
                 (AG) (BU) (BG) (AU) (BU) (AG) (BU) (AG) (AG) (BU)
                 (BU) (AG) (AG) (BU) (BU) (AU) (AG) (AU) (AG) (BG)
                 (BG) (BU) (AU) (BU) (AG) (BG) (AU) (BG) (AG) (AG)
                 (BU) (BU) (BG) (BU) (AG) (AG) (AU) (AG) (AU) (BU)
                 (BU) (AG) (BU) (AU) (BG) (BG) (AG) (BU) (AU) (AG)
                 (BG) (BU) (AG) (BU) (AG) (BU) (AG) (BU) (AG) (BU)
 The electronic state is 1-AG.
 Alpha  occ. eigenvalues --  -11.23032 -11.22855  -1.03561  -0.79241  -0.64288
 Alpha  occ. eigenvalues --   -0.59038  -0.50567  -0.37889
 Alpha virt. eigenvalues --    0.04843   0.06094   0.06299   0.08202   0.10602
 Alpha virt. eigenvalues --    0.12892   0.14041   0.17290   0.18558   0.20401
 Alpha virt. eigenvalues --    0.21926   0.22690   0.23028   0.25438   0.28346
 Alpha virt. eigenvalues --    0.30651   0.44949   0.49078   0.56394   0.57280
 Alpha virt. eigenvalues --    0.66323   0.66663   0.69587   0.69715   0.71370
 Alpha virt. eigenvalues --    0.78102   0.78960   0.80423   0.81416   0.85766
 Alpha virt. eigenvalues --    0.87843   0.91928   0.92261   1.00865   1.08866
 Alpha virt. eigenvalues --    1.11725   1.18592   1.20782   1.23417   1.33344
 Alpha virt. eigenvalues --    1.34720   1.39535   1.40593   1.59780   1.61029
 Alpha virt. eigenvalues --    1.62599   1.64940   1.72532   1.75176   1.76782
 Alpha virt. eigenvalues --    1.83102   1.97958   2.69607   2.81125   2.84887
 Alpha virt. eigenvalues --    2.97341   3.03193   3.08706   3.10702   3.10738
 Alpha virt. eigenvalues --    3.15223   3.21414   3.23861   3.29977   3.38955
 Alpha virt. eigenvalues --    3.40989   3.42675   3.47833   3.49048   3.53464
 Alpha virt. eigenvalues --    3.56405   3.57405   3.65311   3.72751   3.77978
 Alpha virt. eigenvalues --    3.93704   3.98642   4.00493   4.03423   4.14119
 Alpha virt. eigenvalues --    4.17111   4.35242   4.41087   4.41742   4.51703
 Alpha virt. eigenvalues --    4.61908   4.62142   4.74719   4.77194   4.92125
 Alpha virt. eigenvalues --    5.06236   5.12297   5.49254   5.55838   5.83802
 Alpha virt. eigenvalues --    5.93193   6.09795   6.48205  25.11830  25.95005
     Molecular Orbital Coefficients:
                           1         2         3         4         5
                        (AG)--O   (BU)--O   (AG)--O   (BU)--O   (BU)--O
     Eigenvalues --   -11.23032 -11.22855  -1.03561  -0.79241  -0.64288
   1 1   C  1S          0.39824   0.39843  -0.08379  -0.06367   0.00000
   2        2S          0.32978   0.32994  -0.13825  -0.10681   0.00000
   3        2PX        -0.00000  -0.00000   0.00000   0.00000   0.14170
   4        2PY         0.00007   0.00052  -0.05160   0.07228  -0.00000
   5        2PZ         0.00000   0.00000   0.00000   0.00000   0.00000
   6        3S          0.00322   0.00335   0.34235   0.27146  -0.00000
   7        3PX         0.00000   0.00000   0.00000   0.00000   0.21437
   8        3PY        -0.00007  -0.00130  -0.07325   0.10950  -0.00000
   9        3PZ         0.00000   0.00000   0.00000   0.00000   0.00000
  10        4S          0.00083   0.00438   0.17771   0.20900  -0.00000
  11        4PX         0.00000   0.00000   0.00000   0.00000   0.10789
  12        4PY         0.00027  -0.00176  -0.02682   0.03865  -0.00000
  13        4PZ         0.00000   0.00000   0.00000   0.00000   0.00000
  14        5S         -0.00001  -0.00303  -0.00655  -0.06507   0.00000
  15        5PX         0.00000  -0.00000   0.00000  -0.00000  -0.00976
  16        5PY        -0.00011   0.00096   0.00661   0.00711  -0.00000
  17        5PZ         0.00000   0.00000   0.00000   0.00000   0.00000
  18        6D 0       -0.00029  -0.00034  -0.01013  -0.00753   0.00000
  19        6D+1        0.00000   0.00000   0.00000   0.00000   0.00000
  20        6D-1        0.00000   0.00000   0.00000   0.00000   0.00000
  21        6D+2       -0.00012  -0.00017  -0.00695   0.00616   0.00000
  22        6D-2        0.00000   0.00000   0.00000   0.00000   0.00642
  23        7D 0       -0.00026  -0.00061  -0.00735  -0.00798   0.00000
  24        7D+1        0.00000   0.00000   0.00000   0.00000   0.00000
  25        7D-1        0.00000   0.00000   0.00000   0.00000   0.00000
  26        7D+2        0.00005  -0.00068  -0.01095   0.00815  -0.00000
  27        7D-2        0.00000   0.00000  -0.00000  -0.00000   0.00134
  28        8F 0        0.00000   0.00000   0.00000   0.00000   0.00000
  29        8F+1       -0.00000  -0.00000  -0.00000  -0.00000  -0.00314
  30        8F-1       -0.00001   0.00008   0.00089  -0.00145   0.00000
  31        8F+2        0.00000   0.00000   0.00000   0.00000   0.00000
  32        8F-2        0.00000   0.00000   0.00000   0.00000   0.00000
  33        8F+3        0.00000   0.00000   0.00000   0.00000  -0.00205
  34        8F-3        0.00038   0.00046   0.00544   0.00404  -0.00000
  35 2   C  1S          0.39824  -0.39843  -0.08379   0.06367  -0.00000
  36        2S          0.32978  -0.32994  -0.13825   0.10681  -0.00000
  37        2PX         0.00000  -0.00000  -0.00000   0.00000   0.14170
  38        2PY        -0.00007   0.00052   0.05160   0.07228  -0.00000
  39        2PZ         0.00000   0.00000   0.00000   0.00000   0.00000
  40        3S          0.00322  -0.00335   0.34235  -0.27146   0.00000
  41        3PX        -0.00000   0.00000  -0.00000   0.00000   0.21437
  42        3PY         0.00007  -0.00130   0.07325   0.10950  -0.00000
  43        3PZ         0.00000   0.00000   0.00000   0.00000   0.00000
  44        4S          0.00083  -0.00438   0.17771  -0.20900   0.00000
  45        4PX        -0.00000   0.00000  -0.00000   0.00000   0.10789
  46        4PY        -0.00027  -0.00176   0.02682   0.03865  -0.00000
  47        4PZ         0.00000   0.00000   0.00000   0.00000   0.00000
  48        5S         -0.00001   0.00303  -0.00655   0.06507  -0.00000
  49        5PX        -0.00000  -0.00000  -0.00000  -0.00000  -0.00976
  50        5PY         0.00011   0.00096  -0.00661   0.00711  -0.00000
  51        5PZ         0.00000   0.00000   0.00000   0.00000   0.00000
  52        6D 0       -0.00029   0.00034  -0.01013   0.00753  -0.00000
  53        6D+1        0.00000   0.00000   0.00000   0.00000   0.00000
  54        6D-1        0.00000   0.00000   0.00000   0.00000   0.00000
  55        6D+2       -0.00012   0.00017  -0.00695  -0.00616  -0.00000
  56        6D-2        0.00000  -0.00000   0.00000  -0.00000  -0.00642
  57        7D 0       -0.00026   0.00061  -0.00735   0.00798  -0.00000
  58        7D+1        0.00000   0.00000   0.00000   0.00000   0.00000
  59        7D-1        0.00000   0.00000   0.00000   0.00000   0.00000
  60        7D+2        0.00005   0.00068  -0.01095  -0.00815   0.00000
  61        7D-2        0.00000  -0.00000  -0.00000   0.00000  -0.00134
  62        8F 0        0.00000   0.00000   0.00000   0.00000   0.00000
  63        8F+1        0.00000  -0.00000   0.00000  -0.00000  -0.00314
  64        8F-1        0.00001   0.00008  -0.00089  -0.00145   0.00000
  65        8F+2        0.00000   0.00000   0.00000   0.00000   0.00000
  66        8F-2        0.00000   0.00000   0.00000   0.00000   0.00000
  67        8F+3       -0.00000   0.00000  -0.00000   0.00000  -0.00205
  68        8F-3       -0.00038   0.00046  -0.00544   0.00404  -0.00000
  69 3   H  1S          0.00018  -0.00020   0.04939  -0.08749   0.09353
  70        2S         -0.00056   0.00024   0.06538  -0.12364   0.14576
  71        3S         -0.00011  -0.00005   0.00127  -0.02767   0.04584
  72        4S          0.00002   0.00014   0.00375  -0.00970   0.01530
  73        5PX         0.00003  -0.00001  -0.00358   0.00690  -0.00492
  74        5PY        -0.00003   0.00001   0.00316  -0.00297   0.00550
  75        5PZ         0.00000   0.00000   0.00000   0.00000   0.00000
  76        6PX         0.00022  -0.00010  -0.00796   0.01380  -0.00808
  77        6PY        -0.00015   0.00000   0.00498  -0.00432   0.00795
  78        6PZ         0.00000   0.00000   0.00000   0.00000   0.00000
  79 4   H  1S          0.00018  -0.00020   0.04939  -0.08749  -0.09353
  80        2S         -0.00056   0.00024   0.06538  -0.12364  -0.14576
  81        3S         -0.00011  -0.00005   0.00127  -0.02767  -0.04584
  82        4S          0.00002   0.00014   0.00375  -0.00970  -0.01530
  83        5PX        -0.00003   0.00001   0.00358  -0.00690  -0.00492
  84        5PY        -0.00003   0.00001   0.00316  -0.00297  -0.00550
  85        5PZ         0.00000   0.00000   0.00000   0.00000   0.00000
  86        6PX        -0.00022   0.00010   0.00796  -0.01380  -0.00808
  87        6PY        -0.00015   0.00000   0.00498  -0.00432  -0.00795
  88        6PZ         0.00000   0.00000   0.00000   0.00000   0.00000
  89 5   H  1S          0.00018   0.00020   0.04939   0.08749   0.09353
  90        2S         -0.00056  -0.00024   0.06538   0.12364   0.14576
  91        3S         -0.00011   0.00005   0.00127   0.02767   0.04584
  92        4S          0.00002  -0.00014   0.00375   0.00970   0.01530
  93        5PX         0.00003   0.00001  -0.00358  -0.00690  -0.00492
  94        5PY         0.00003   0.00001  -0.00316  -0.00297  -0.00550
  95        5PZ         0.00000   0.00000   0.00000   0.00000   0.00000
  96        6PX         0.00022   0.00010  -0.00796  -0.01380  -0.00808
  97        6PY         0.00015   0.00000  -0.00498  -0.00432  -0.00795
  98        6PZ         0.00000   0.00000   0.00000   0.00000   0.00000
  99 6   H  1S          0.00018   0.00020   0.04939   0.08749  -0.09353
 100        2S         -0.00056  -0.00024   0.06538   0.12364  -0.14576
 101        3S         -0.00011   0.00005   0.00127   0.02767  -0.04584
 102        4S          0.00002  -0.00014   0.00375   0.00970  -0.01530
 103        5PX        -0.00003  -0.00001   0.00358   0.00690  -0.00492
 104        5PY         0.00003   0.00001  -0.00316  -0.00297   0.00550
 105        5PZ         0.00000   0.00000   0.00000   0.00000   0.00000
 106        6PX        -0.00022  -0.00010   0.00796   0.01380  -0.00808
 107        6PY         0.00015   0.00000  -0.00498  -0.00432   0.00795
 108        6PZ         0.00000   0.00000   0.00000   0.00000   0.00000
                           6         7         8         9        10
                        (AG)--O   (AG)--O   (AU)--O   (AG)--V   (BU)--V
     Eigenvalues --    -0.59038  -0.50567  -0.37889   0.04843   0.06094
   1 1   C  1S          0.00591   0.00000   0.00000  -0.01060  -0.01127
   2        2S          0.00994   0.00000   0.00000  -0.01855  -0.01940
   3        2PX         0.00000   0.13397   0.00000  -0.00000  -0.00000
   4        2PY         0.18479  -0.00000   0.00000   0.02589   0.01305
   5        2PZ         0.00000   0.00000   0.16359   0.00000   0.00000
   6        3S         -0.03017  -0.00000   0.00000   0.06685   0.07358
   7        3PX         0.00000   0.20548   0.00000  -0.00000  -0.00000
   8        3PY         0.27177  -0.00000   0.00000   0.01490  -0.01661
   9        3PZ         0.00000   0.00000   0.26900   0.00000   0.00000
  10        4S          0.01564  -0.00000   0.00000  -0.33676  -0.32046
  11        4PX         0.00000   0.14869   0.00000  -0.00000   0.00000
  12        4PY         0.14150  -0.00000   0.00000  -0.07134  -0.18789
  13        4PZ         0.00000   0.00000   0.24552   0.00000   0.00000
  14        5S         -0.00656  -0.00000   0.00000   2.19553   5.10337
  15        5PX        -0.00000   0.00103   0.00000  -0.00000  -0.00000
  16        5PY        -0.00596  -0.00000   0.00000   0.42900   0.23893
  17        5PZ         0.00000   0.00000   0.03274   0.00000   0.00000
  18        6D 0       -0.00024  -0.00000   0.00000  -0.00035  -0.00097
  19        6D+1        0.00000   0.00000   0.00000   0.00000   0.00000
  20        6D-1        0.00000   0.00000  -0.01261   0.00000   0.00000
  21        6D+2        0.01645   0.00000   0.00000   0.00043   0.00200
  22        6D-2        0.00000   0.01939   0.00000  -0.00000  -0.00000
  23        7D 0       -0.00171   0.00000   0.00000   0.01743   0.05081
  24        7D+1        0.00000   0.00000  -0.00000   0.00000   0.00000
  25        7D-1        0.00000   0.00000  -0.03087   0.00000   0.00000
  26        7D+2        0.01229   0.00000   0.00000  -0.02382  -0.04856
  27        7D-2        0.00000   0.04812   0.00000   0.00000   0.00000
  28        8F 0        0.00000   0.00000  -0.00631   0.00000   0.00000
  29        8F+1        0.00000  -0.00294   0.00000   0.00000   0.00000
  30        8F-1       -0.00370   0.00000   0.00000   0.00102   0.00169
  31        8F+2        0.00000   0.00000  -0.00373   0.00000   0.00000
  32        8F-2        0.00000   0.00000  -0.00000   0.00000   0.00000
  33        8F+3        0.00000   0.00071   0.00000  -0.00000  -0.00000
  34        8F-3       -0.00258  -0.00000   0.00000  -0.00436  -0.00318
  35 2   C  1S          0.00591   0.00000   0.00000  -0.01060   0.01127
  36        2S          0.00994   0.00000   0.00000  -0.01855   0.01940
  37        2PX        -0.00000  -0.13397   0.00000   0.00000  -0.00000
  38        2PY        -0.18479   0.00000   0.00000  -0.02589   0.01305
  39        2PZ         0.00000   0.00000   0.16359   0.00000   0.00000
  40        3S         -0.03017  -0.00000   0.00000   0.06685  -0.07358
  41        3PX        -0.00000  -0.20548   0.00000   0.00000  -0.00000
  42        3PY        -0.27177   0.00000   0.00000  -0.01490  -0.01661
  43        3PZ         0.00000   0.00000   0.26900   0.00000   0.00000
  44        4S          0.01564  -0.00000   0.00000  -0.33676   0.32046
  45        4PX        -0.00000  -0.14869   0.00000   0.00000   0.00000
  46        4PY        -0.14150   0.00000   0.00000   0.07134  -0.18789
  47        4PZ         0.00000   0.00000   0.24552   0.00000   0.00000
  48        5S         -0.00656  -0.00000   0.00000   2.19553  -5.10337
  49        5PX         0.00000  -0.00103   0.00000   0.00000  -0.00000
  50        5PY         0.00596   0.00000   0.00000  -0.42900   0.23893
  51        5PZ         0.00000   0.00000   0.03274   0.00000   0.00000
  52        6D 0       -0.00024  -0.00000   0.00000  -0.00035   0.00097
  53        6D+1        0.00000   0.00000  -0.00000   0.00000   0.00000
  54        6D-1        0.00000   0.00000   0.01261   0.00000   0.00000
  55        6D+2        0.01645   0.00000   0.00000   0.00043  -0.00200
  56        6D-2        0.00000   0.01939   0.00000  -0.00000   0.00000
  57        7D 0       -0.00171   0.00000   0.00000   0.01743  -0.05081
  58        7D+1        0.00000   0.00000   0.00000   0.00000   0.00000
  59        7D-1        0.00000   0.00000   0.03087   0.00000   0.00000
  60        7D+2        0.01229   0.00000   0.00000  -0.02382   0.04856
  61        7D-2        0.00000   0.04812   0.00000   0.00000  -0.00000
  62        8F 0        0.00000   0.00000  -0.00631   0.00000   0.00000
  63        8F+1       -0.00000   0.00294   0.00000  -0.00000   0.00000
  64        8F-1        0.00370  -0.00000   0.00000  -0.00102   0.00169
  65        8F+2        0.00000   0.00000  -0.00373   0.00000   0.00000
  66        8F-2        0.00000   0.00000  -0.00000   0.00000   0.00000
  67        8F+3       -0.00000  -0.00071   0.00000   0.00000  -0.00000
  68        8F-3        0.00258   0.00000   0.00000   0.00436  -0.00318
  69 3   H  1S          0.07599  -0.11294   0.00000   0.00525   0.00020
  70        2S          0.11980  -0.16273   0.00000   0.08044  -0.14242
  71        3S          0.04340  -0.08513   0.00000   0.12936  -0.04256
  72        4S          0.00385  -0.00853   0.00000  -1.36517   2.37445
  73        5PX        -0.00683   0.00588   0.00000  -0.00148   0.00088
  74        5PY         0.00051  -0.00504   0.00000   0.00068  -0.00182
  75        5PZ         0.00000   0.00000   0.00459   0.00000   0.00000
  76        6PX        -0.01017   0.00063   0.00000  -0.04487   0.05134
  77        6PY         0.00016  -0.00758   0.00000   0.02076  -0.03879
  78        6PZ         0.00000   0.00000   0.01492   0.00000   0.00000
  79 4   H  1S          0.07599   0.11294   0.00000   0.00525   0.00020
  80        2S          0.11980   0.16273   0.00000   0.08044  -0.14242
  81        3S          0.04340   0.08513   0.00000   0.12936  -0.04256
  82        4S          0.00385   0.00853   0.00000  -1.36517   2.37444
  83        5PX         0.00683   0.00588   0.00000   0.00148  -0.00088
  84        5PY         0.00051   0.00504   0.00000   0.00068  -0.00182
  85        5PZ         0.00000   0.00000   0.00459   0.00000   0.00000
  86        6PX         0.01017   0.00063   0.00000   0.04487  -0.05134
  87        6PY         0.00016   0.00758   0.00000   0.02076  -0.03879
  88        6PZ         0.00000   0.00000   0.01492   0.00000   0.00000
  89 5   H  1S          0.07599   0.11294   0.00000   0.00525  -0.00020
  90        2S          0.11980   0.16273   0.00000   0.08044   0.14242
  91        3S          0.04340   0.08513   0.00000   0.12936   0.04256
  92        4S          0.00385   0.00853   0.00000  -1.36517  -2.37444
  93        5PX        -0.00683  -0.00588   0.00000  -0.00148  -0.00088
  94        5PY        -0.00051  -0.00504   0.00000  -0.00068  -0.00182
  95        5PZ         0.00000   0.00000   0.00459   0.00000   0.00000
  96        6PX        -0.01017  -0.00063   0.00000  -0.04487  -0.05134
  97        6PY        -0.00016  -0.00758   0.00000  -0.02076  -0.03879
  98        6PZ         0.00000   0.00000   0.01492   0.00000   0.00000
  99 6   H  1S          0.07599  -0.11294   0.00000   0.00525  -0.00020
 100        2S          0.11980  -0.16273   0.00000   0.08044   0.14242
 101        3S          0.04340  -0.08513   0.00000   0.12936   0.04256
 102        4S          0.00385  -0.00853   0.00000  -1.36517  -2.37445
 103        5PX         0.00683  -0.00588   0.00000   0.00148   0.00088
 104        5PY        -0.00051   0.00504   0.00000  -0.00068  -0.00182
 105        5PZ         0.00000   0.00000   0.00459   0.00000   0.00000
 106        6PX         0.01017  -0.00063   0.00000   0.04487   0.05134
 107        6PY        -0.00016   0.00758   0.00000  -0.02076  -0.03879
 108        6PZ         0.00000   0.00000   0.01492   0.00000   0.00000
                          11        12        13        14        15
                        (BU)--V   (AG)--V   (BG)--V   (AU)--V   (AG)--V
     Eigenvalues --     0.06299   0.08202   0.10602   0.12892   0.14041
   1 1   C  1S         -0.00000   0.00000   0.00000   0.00000  -0.00370
   2        2S         -0.00000   0.00000   0.00000   0.00000  -0.00405
   3        2PX         0.03054  -0.01895   0.00000   0.00000  -0.00000
   4        2PY         0.00000  -0.00000   0.00000   0.00000  -0.02449
   5        2PZ         0.00000   0.00000   0.08344  -0.06301   0.00000
   6        3S          0.00000  -0.00000   0.00000   0.00000  -0.03829
   7        3PX         0.01324  -0.02323   0.00000   0.00000   0.00000
   8        3PY        -0.00000   0.00000   0.00000   0.00000   0.01067
   9        3PZ         0.00000   0.00000   0.14894  -0.04350   0.00000
  10        4S         -0.00000   0.00000   0.00000   0.00000   0.13671
  11        4PX        -0.17027  -0.11794   0.00000   0.00000  -0.00000
  12        4PY         0.00000   0.00000   0.00000   0.00000  -0.19447
  13        4PZ         0.00000   0.00000   0.07652  -0.35159   0.00000
  14        5S          0.00002  -0.00000   0.00000   0.00000   2.73955
  15        5PX         1.19814  -6.95752   0.00000   0.00000   0.00000
  16        5PY        -0.00000   0.00000   0.00000   0.00000   2.16325
  17        5PZ         0.00000   0.00000   1.61257   0.66412   0.00000
  18        6D 0       -0.00000  -0.00000   0.00000   0.00000   0.00172
  19        6D+1        0.00000   0.00000   0.00000   0.00000   0.00000
  20        6D-1        0.00000   0.00000   0.00693   0.00697   0.00000
  21        6D+2        0.00000   0.00000   0.00000   0.00000  -0.00320
  22        6D-2        0.00004  -0.00218   0.00000   0.00000  -0.00000
  23        7D 0        0.00000   0.00000   0.00000   0.00000  -0.01144
  24        7D+1        0.00000   0.00000  -0.00000  -0.00000   0.00000
  25        7D-1        0.00000   0.00000   0.05090  -0.00161   0.00000
  26        7D+2       -0.00000   0.00000   0.00000   0.00000  -0.05414
  27        7D-2       -0.05581   0.03194   0.00000   0.00000   0.00000
  28        8F 0        0.00000   0.00000   0.00165   0.00536   0.00000
  29        8F+1        0.00292  -0.00159   0.00000   0.00000   0.00000
  30        8F-1        0.00000   0.00000   0.00000   0.00000   0.00638
  31        8F+2        0.00000   0.00000   0.00388   0.00191   0.00000
  32        8F-2        0.00000   0.00000  -0.00000   0.00000   0.00000
  33        8F+3       -0.00001   0.00036   0.00000   0.00000   0.00000
  34        8F-3       -0.00000   0.00000   0.00000   0.00000   0.00461
  35 2   C  1S          0.00000   0.00000   0.00000   0.00000  -0.00370
  36        2S          0.00000   0.00000   0.00000   0.00000  -0.00405
  37        2PX         0.03054   0.01895   0.00000   0.00000   0.00000
  38        2PY         0.00000   0.00000   0.00000   0.00000   0.02449
  39        2PZ         0.00000   0.00000  -0.08344  -0.06301   0.00000
  40        3S         -0.00000  -0.00000   0.00000   0.00000  -0.03829
  41        3PX         0.01324   0.02323   0.00000   0.00000  -0.00000
  42        3PY        -0.00000  -0.00000   0.00000   0.00000  -0.01067
  43        3PZ         0.00000   0.00000  -0.14894  -0.04350   0.00000
  44        4S          0.00000   0.00000   0.00000   0.00000   0.13671
  45        4PX        -0.17027   0.11794   0.00000   0.00000   0.00000
  46        4PY         0.00000  -0.00000   0.00000   0.00000   0.19447
  47        4PZ         0.00000   0.00000  -0.07652  -0.35159   0.00000
  48        5S         -0.00002  -0.00000   0.00000   0.00000   2.73955
  49        5PX         1.19814   6.95752   0.00000   0.00000  -0.00000
  50        5PY        -0.00000  -0.00000   0.00000   0.00000  -2.16325
  51        5PZ         0.00000   0.00000  -1.61257   0.66412   0.00000
  52        6D 0        0.00000  -0.00000   0.00000   0.00000   0.00172
  53        6D+1        0.00000   0.00000   0.00000  -0.00000   0.00000
  54        6D-1        0.00000   0.00000   0.00693  -0.00697   0.00000
  55        6D+2       -0.00000   0.00000   0.00000   0.00000  -0.00320
  56        6D-2       -0.00004  -0.00218   0.00000   0.00000  -0.00000
  57        7D 0       -0.00000   0.00000   0.00000   0.00000  -0.01144
  58        7D+1        0.00000   0.00000  -0.00000   0.00000   0.00000
  59        7D-1        0.00000   0.00000   0.05090   0.00161   0.00000
  60        7D+2        0.00000   0.00000   0.00000   0.00000  -0.05414
  61        7D-2        0.05581   0.03194   0.00000   0.00000   0.00000
  62        8F 0        0.00000   0.00000  -0.00165   0.00536   0.00000
  63        8F+1        0.00292   0.00159   0.00000   0.00000  -0.00000
  64        8F-1        0.00000  -0.00000   0.00000   0.00000  -0.00638
  65        8F+2        0.00000   0.00000  -0.00388   0.00191   0.00000
  66        8F-2        0.00000   0.00000   0.00000   0.00000   0.00000
  67        8F+3       -0.00001  -0.00036   0.00000   0.00000  -0.00000
  68        8F-3       -0.00000  -0.00000   0.00000   0.00000  -0.00461
  69 3   H  1S          0.00280   0.00465   0.00000   0.00000  -0.01677
  70        2S          0.09573   0.08359   0.00000   0.00000   0.04603
  71        3S          0.11381  -0.65730   0.00000   0.00000  -0.40378
  72        4S         -2.71527  -7.56931   0.00000   0.00000  -1.02031
  73        5PX        -0.00115  -0.00258   0.00000   0.00000  -0.00089
  74        5PY         0.00116   0.00264   0.00000   0.00000  -0.00224
  75        5PZ         0.00000   0.00000  -0.00396  -0.00158   0.00000
  76        6PX        -0.03999  -0.00453   0.00000   0.00000   0.00591
  77        6PY         0.02507  -0.00549   0.00000   0.00000  -0.00443
  78        6PZ         0.00000   0.00000  -0.02253   0.01691   0.00000
  79 4   H  1S         -0.00280  -0.00465   0.00000   0.00000  -0.01677
  80        2S         -0.09573  -0.08359   0.00000   0.00000   0.04603
  81        3S         -0.11381   0.65730   0.00000   0.00000  -0.40378
  82        4S          2.71528   7.56931   0.00000   0.00000  -1.02031
  83        5PX        -0.00115  -0.00258   0.00000   0.00000   0.00089
  84        5PY        -0.00116  -0.00264   0.00000   0.00000  -0.00224
  85        5PZ         0.00000   0.00000  -0.00396  -0.00158   0.00000
  86        6PX        -0.03999  -0.00453   0.00000   0.00000  -0.00591
  87        6PY        -0.02508   0.00549   0.00000   0.00000  -0.00443
  88        6PZ         0.00000   0.00000  -0.02253   0.01691   0.00000
  89 5   H  1S          0.00280  -0.00465   0.00000   0.00000  -0.01677
  90        2S          0.09573  -0.08359   0.00000   0.00000   0.04603
  91        3S          0.11381   0.65730   0.00000   0.00000  -0.40378
  92        4S         -2.71528   7.56931   0.00000   0.00000  -1.02031
  93        5PX        -0.00115   0.00258   0.00000   0.00000  -0.00089
  94        5PY        -0.00116   0.00264   0.00000   0.00000   0.00224
  95        5PZ         0.00000   0.00000   0.00396  -0.00158   0.00000
  96        6PX        -0.03999   0.00453   0.00000   0.00000   0.00591
  97        6PY        -0.02508  -0.00549   0.00000   0.00000   0.00443
  98        6PZ         0.00000   0.00000   0.02253   0.01691   0.00000
  99 6   H  1S         -0.00280   0.00465   0.00000   0.00000  -0.01677
 100        2S         -0.09573   0.08359   0.00000   0.00000   0.04603
 101        3S         -0.11381  -0.65730   0.00000   0.00000  -0.40378
 102        4S          2.71527  -7.56931   0.00000   0.00000  -1.02031
 103        5PX        -0.00115   0.00258   0.00000   0.00000   0.00089
 104        5PY         0.00116  -0.00264   0.00000   0.00000   0.00224
 105        5PZ         0.00000   0.00000   0.00396  -0.00158   0.00000
 106        6PX        -0.03999   0.00453   0.00000   0.00000  -0.00591
 107        6PY         0.02507   0.00549   0.00000   0.00000   0.00443
 108        6PZ         0.00000   0.00000   0.02253   0.01691   0.00000
                          16        17        18        19        20
                        (BU)--V   (AG)--V   (BU)--V   (BU)--V   (BG)--V
     Eigenvalues --     0.17290   0.18558   0.20401   0.21926   0.22690
   1 1   C  1S         -0.00781   0.01304   0.00000   0.01942   0.00000
   2        2S         -0.01244   0.02075   0.00000   0.03474   0.00000
   3        2PX        -0.00000   0.00000  -0.04051   0.00000   0.00000
   4        2PY        -0.00598   0.00713   0.00000  -0.01693   0.00000
   5        2PZ         0.00000   0.00000   0.00000   0.00000  -0.15349
   6        3S          0.06194  -0.00804  -0.00000  -0.02109   0.00000
   7        3PX         0.00000  -0.00000  -0.12770  -0.00000   0.00000
   8        3PY         0.07037  -0.03965  -0.00000  -0.07868   0.00000
   9        3PZ         0.00000   0.00000   0.00000   0.00000  -0.19149
  10        4S         -1.73030  -0.42520  -0.00000  -1.88461   0.00000
  11        4PX         0.00000  -0.00000  -0.42358   0.00000   0.00000
  12        4PY         1.11697   0.10303   0.00000   0.05671   0.00000
  13        4PZ         0.00000   0.00000   0.00000   0.00000  -0.94434
  14        5S         33.96456   4.94284   0.00005  35.83204   0.00000
  15        5PX        -0.00000  -0.00001   3.37074   0.00000   0.00000
  16        5PY       -12.94475   0.55776  -0.00001  -6.86428   0.00000
  17        5PZ         0.00000   0.00000   0.00000   0.00000   1.70977
  18        6D 0       -0.00061   0.01189   0.00000   0.00074   0.00000
  19        6D+1        0.00000   0.00000   0.00000   0.00000  -0.00000
  20        6D-1        0.00000   0.00000   0.00000   0.00000  -0.01381
  21        6D+2        0.00333  -0.00053  -0.00000   0.00015   0.00000
  22        6D-2       -0.00000  -0.00000   0.00106  -0.00000   0.00000
  23        7D 0        0.07902   0.02674   0.00000   0.15294   0.00000
  24        7D+1        0.00000   0.00000   0.00000   0.00000  -0.00000
  25        7D-1        0.00000   0.00000   0.00000   0.00000   0.02362
  26        7D+2        0.10884  -0.00478  -0.00000  -0.09258   0.00000
  27        7D-2        0.00000   0.00000  -0.10469   0.00000   0.00000
  28        8F 0        0.00000   0.00000   0.00000   0.00000   0.00839
  29        8F+1       -0.00000   0.00000   0.01064  -0.00000   0.00000
  30        8F-1       -0.00644  -0.00155   0.00000   0.00413   0.00000
  31        8F+2        0.00000   0.00000   0.00000   0.00000   0.00351
  32        8F-2        0.00000   0.00000   0.00000   0.00000  -0.00000
  33        8F+3        0.00000  -0.00000   0.00363  -0.00000   0.00000
  34        8F-3       -0.00586  -0.01147  -0.00000  -0.01701   0.00000
  35 2   C  1S          0.00781   0.01304  -0.00000  -0.01942   0.00000
  36        2S          0.01244   0.02075  -0.00000  -0.03474   0.00000
  37        2PX        -0.00000  -0.00000  -0.04051   0.00000   0.00000
  38        2PY        -0.00598  -0.00713   0.00000  -0.01693   0.00000
  39        2PZ         0.00000   0.00000   0.00000   0.00000   0.15349
  40        3S         -0.06194  -0.00804   0.00000   0.02109   0.00000
  41        3PX         0.00000   0.00000  -0.12770  -0.00000   0.00000
  42        3PY         0.07037   0.03965  -0.00000  -0.07868   0.00000
  43        3PZ         0.00000   0.00000   0.00000   0.00000   0.19149
  44        4S          1.73030  -0.42520   0.00000   1.88461   0.00000
  45        4PX         0.00000   0.00000  -0.42358   0.00000   0.00000
  46        4PY         1.11697  -0.10303   0.00000   0.05671   0.00000
  47        4PZ         0.00000   0.00000   0.00000   0.00000   0.94434
  48        5S        -33.96456   4.94284  -0.00005 -35.83204   0.00000
  49        5PX        -0.00000   0.00001   3.37074   0.00000   0.00000
  50        5PY       -12.94475  -0.55776  -0.00001  -6.86428   0.00000
  51        5PZ         0.00000   0.00000   0.00000   0.00000  -1.70977
  52        6D 0        0.00061   0.01189  -0.00000  -0.00074   0.00000
  53        6D+1        0.00000   0.00000   0.00000   0.00000  -0.00000
  54        6D-1        0.00000   0.00000   0.00000   0.00000  -0.01381
  55        6D+2       -0.00333  -0.00053   0.00000  -0.00015   0.00000
  56        6D-2        0.00000  -0.00000  -0.00106   0.00000   0.00000
  57        7D 0       -0.07902   0.02674  -0.00000  -0.15294   0.00000
  58        7D+1        0.00000   0.00000   0.00000   0.00000  -0.00000
  59        7D-1        0.00000   0.00000   0.00000   0.00000   0.02362
  60        7D+2       -0.10884  -0.00478   0.00000   0.09258   0.00000
  61        7D-2       -0.00000   0.00000   0.10469  -0.00000   0.00000
  62        8F 0        0.00000   0.00000   0.00000   0.00000  -0.00839
  63        8F+1       -0.00000  -0.00000   0.01064  -0.00000   0.00000
  64        8F-1       -0.00644   0.00155   0.00000   0.00413   0.00000
  65        8F+2        0.00000   0.00000   0.00000   0.00000  -0.00351
  66        8F-2        0.00000   0.00000   0.00000   0.00000   0.00000
  67        8F+3        0.00000   0.00000   0.00363  -0.00000   0.00000
  68        8F-3       -0.00586   0.01147  -0.00000  -0.01701   0.00000
  69 3   H  1S         -0.00763  -0.02612  -0.02353   0.02075   0.00000
  70        2S         -0.02362   0.09626   0.23584  -0.40742   0.00000
  71        3S         -0.02564  -0.99143  -0.73357   0.83900   0.00000
  72        4S         -3.72976  -1.68278  -4.13622   2.16803   0.00000
  73        5PX         0.00058  -0.00283  -0.00100   0.00136   0.00000
  74        5PY         0.00108   0.00172   0.00276  -0.00057   0.00000
  75        5PZ         0.00000   0.00000   0.00000   0.00000   0.00712
  76        6PX        -0.00120  -0.00556  -0.03583   0.07372   0.00000
  77        6PY        -0.03072   0.00730   0.01480  -0.07797   0.00000
  78        6PZ         0.00000   0.00000   0.00000   0.00000   0.00975
  79 4   H  1S         -0.00763  -0.02612   0.02353   0.02075   0.00000
  80        2S         -0.02362   0.09626  -0.23584  -0.40742   0.00000
  81        3S         -0.02564  -0.99143   0.73357   0.83900   0.00000
  82        4S         -3.72976  -1.68278   4.13623   2.16803   0.00000
  83        5PX        -0.00058   0.00283  -0.00100  -0.00136   0.00000
  84        5PY         0.00108   0.00172  -0.00276  -0.00057   0.00000
  85        5PZ         0.00000   0.00000   0.00000   0.00000   0.00712
  86        6PX         0.00120   0.00556  -0.03583  -0.07372   0.00000
  87        6PY        -0.03072   0.00730  -0.01480  -0.07797   0.00000
  88        6PZ         0.00000   0.00000   0.00000   0.00000   0.00975
  89 5   H  1S          0.00763  -0.02612  -0.02353  -0.02075   0.00000
  90        2S          0.02362   0.09626   0.23584   0.40742   0.00000
  91        3S          0.02564  -0.99143  -0.73357  -0.83900   0.00000
  92        4S          3.72976  -1.68278  -4.13623  -2.16803   0.00000
  93        5PX        -0.00058  -0.00283  -0.00100  -0.00136   0.00000
  94        5PY         0.00108  -0.00172  -0.00276  -0.00057   0.00000
  95        5PZ         0.00000   0.00000   0.00000   0.00000  -0.00712
  96        6PX         0.00120  -0.00556  -0.03583  -0.07372   0.00000
  97        6PY        -0.03072  -0.00730  -0.01480  -0.07797   0.00000
  98        6PZ         0.00000   0.00000   0.00000   0.00000  -0.00975
  99 6   H  1S          0.00763  -0.02612   0.02353  -0.02075   0.00000
 100        2S          0.02362   0.09626  -0.23584   0.40742   0.00000
 101        3S          0.02564  -0.99143   0.73357  -0.83900   0.00000
 102        4S          3.72976  -1.68278   4.13622  -2.16803   0.00000
 103        5PX         0.00058   0.00283  -0.00100   0.00136   0.00000
 104        5PY         0.00108  -0.00172   0.00276  -0.00057   0.00000
 105        5PZ         0.00000   0.00000   0.00000   0.00000  -0.00712
 106        6PX        -0.00120   0.00556  -0.03583   0.07372   0.00000
 107        6PY        -0.03072  -0.00730   0.01480  -0.07797   0.00000
 108        6PZ         0.00000   0.00000   0.00000   0.00000  -0.00975
                          21        22        23        24        25
                        (AG)--V   (AG)--V   (BU)--V   (BU)--V   (AG)--V
     Eigenvalues --     0.23028   0.25438   0.28346   0.30651   0.44949
   1 1   C  1S         -0.00000  -0.02695  -0.00000  -0.03064   0.00000
   2        2S         -0.00000  -0.04768  -0.00000  -0.05465   0.00000
   3        2PX        -0.04892   0.00000  -0.08231   0.00000   0.10227
   4        2PY         0.00000   0.05819   0.00000   0.02913  -0.00000
   5        2PZ         0.00000   0.00000   0.00000   0.00000   0.00000
   6        3S          0.00000   0.09465   0.00000   0.08901   0.00000
   7        3PX        -0.07128   0.00000  -0.20473   0.00000   0.22590
   8        3PY         0.00000   0.15139   0.00000   0.09979  -0.00000
   9        3PZ         0.00000   0.00000   0.00000   0.00000   0.00000
  10        4S          0.00000   2.43040   0.00001   2.79274   0.00000
  11        4PX         0.36462   0.00000  -1.13087   0.00001   3.31352
  12        4PY         0.00000   0.90683   0.00001   0.74273  -0.00000
  13        4PZ         0.00000   0.00000   0.00000   0.00000   0.00000
  14        5S          0.00000  -0.66614   0.00011  17.07618   0.00000
  15        5PX        14.86280  -0.00002  -0.97945   0.00001  14.20693
  16        5PY        -0.00001  -0.34462  -0.00002  -2.93101  -0.00001
  17        5PZ         0.00000   0.00000   0.00000   0.00000   0.00000
  18        6D 0        0.00000   0.00340   0.00000   0.00887   0.00000
  19        6D+1        0.00000   0.00000   0.00000   0.00000   0.00000
  20        6D-1        0.00000   0.00000   0.00000   0.00000   0.00000
  21        6D+2       -0.00000  -0.00829  -0.00000  -0.00420  -0.00000
  22        6D-2       -0.00258   0.00000   0.02148  -0.00000   0.00837
  23        7D 0       -0.00000  -0.07391  -0.00000  -0.14836  -0.00000
  24        7D+1        0.00000   0.00000   0.00000   0.00000   0.00000
  25        7D-1        0.00000   0.00000   0.00000   0.00000   0.00000
  26        7D+2        0.00000   0.08158   0.00000   0.08336   0.00000
  27        7D-2       -0.06332   0.00000  -0.08304   0.00000   0.11914
  28        8F 0        0.00000   0.00000   0.00000   0.00000   0.00000
  29        8F+1        0.00283  -0.00000   0.00766  -0.00000  -0.01217
  30        8F-1       -0.00000  -0.00945   0.00000   0.00032  -0.00000
  31        8F+2        0.00000   0.00000   0.00000   0.00000   0.00000
  32        8F-2        0.00000   0.00000   0.00000   0.00000   0.00000
  33        8F+3       -0.00258   0.00000   0.00237   0.00000   0.00112
  34        8F-3        0.00000   0.01468   0.00000   0.00594   0.00000
  35 2   C  1S         -0.00000  -0.02695   0.00000   0.03064   0.00000
  36        2S         -0.00000  -0.04768   0.00000   0.05465   0.00000
  37        2PX         0.04892  -0.00000  -0.08231   0.00000  -0.10227
  38        2PY        -0.00000  -0.05819   0.00000   0.02913   0.00000
  39        2PZ         0.00000   0.00000   0.00000   0.00000   0.00000
  40        3S          0.00000   0.09465  -0.00000  -0.08901   0.00000
  41        3PX         0.07128  -0.00000  -0.20473   0.00000  -0.22590
  42        3PY        -0.00000  -0.15139   0.00000   0.09979   0.00000
  43        3PZ         0.00000   0.00000   0.00000   0.00000   0.00000
  44        4S          0.00000   2.43040  -0.00001  -2.79274   0.00000
  45        4PX        -0.36462  -0.00000  -1.13087   0.00001  -3.31352
  46        4PY        -0.00000  -0.90683   0.00001   0.74273   0.00000
  47        4PZ         0.00000   0.00000   0.00000   0.00000   0.00000
  48        5S          0.00000  -0.66614  -0.00011 -17.07618   0.00000
  49        5PX       -14.86280   0.00002  -0.97945   0.00001 -14.20693
  50        5PY         0.00001   0.34462  -0.00002  -2.93101   0.00001
  51        5PZ         0.00000   0.00000   0.00000   0.00000   0.00000
  52        6D 0        0.00000   0.00340  -0.00000  -0.00887   0.00000
  53        6D+1        0.00000   0.00000   0.00000   0.00000   0.00000
  54        6D-1        0.00000   0.00000   0.00000   0.00000   0.00000
  55        6D+2       -0.00000  -0.00829   0.00000   0.00420  -0.00000
  56        6D-2       -0.00258   0.00000  -0.02148   0.00000   0.00837
  57        7D 0       -0.00000  -0.07391   0.00000   0.14836  -0.00000
  58        7D+1        0.00000   0.00000   0.00000   0.00000   0.00000
  59        7D-1        0.00000   0.00000   0.00000   0.00000   0.00000
  60        7D+2        0.00000   0.08158  -0.00000  -0.08336   0.00000
  61        7D-2       -0.06332   0.00000   0.08304  -0.00000   0.11914
  62        8F 0        0.00000   0.00000   0.00000   0.00000   0.00000
  63        8F+1       -0.00283   0.00000   0.00766  -0.00000   0.01217
  64        8F-1        0.00000   0.00945   0.00000   0.00032   0.00000
  65        8F+2        0.00000   0.00000   0.00000   0.00000   0.00000
  66        8F-2        0.00000   0.00000   0.00000   0.00000   0.00000
  67        8F+3        0.00258  -0.00000   0.00237   0.00000  -0.00112
  68        8F-3       -0.00000  -0.01468   0.00000   0.00594  -0.00000
  69 3   H  1S          0.02131  -0.01392   0.04272   0.03201  -0.00421
  70        2S         -0.07818  -0.29399   0.22566   0.31411   0.29858
  71        3S          2.08118  -1.67324   2.22700   2.73646   5.42106
  72        4S         10.64640   0.77738   0.18778   0.37416   7.91654
  73        5PX         0.00146  -0.01177   0.00556   0.01470   0.01372
  74        5PY        -0.00237   0.00095  -0.01010  -0.00358  -0.01595
  75        5PZ         0.00000   0.00000   0.00000   0.00000   0.00000
  76        6PX        -0.03078   0.13763  -0.10381  -0.16809  -0.15707
  77        6PY         0.05077  -0.08504   0.06503   0.09476   0.14408
  78        6PZ         0.00000   0.00000   0.00000   0.00000   0.00000
  79 4   H  1S         -0.02131  -0.01392  -0.04272   0.03201   0.00421
  80        2S          0.07818  -0.29399  -0.22565   0.31412  -0.29859
  81        3S         -2.08118  -1.67324  -2.22697   2.73650  -5.42106
  82        4S        -10.64640   0.77742  -0.18777   0.37417  -7.91655
  83        5PX         0.00146   0.01177   0.00556  -0.01470   0.01372
  84        5PY         0.00237   0.00095   0.01010  -0.00358   0.01595
  85        5PZ         0.00000   0.00000   0.00000   0.00000   0.00000
  86        6PX        -0.03078  -0.13763  -0.10380   0.16809  -0.15707
  87        6PY        -0.05077  -0.08504  -0.06503   0.09476  -0.14408
  88        6PZ         0.00000   0.00000   0.00000   0.00000   0.00000
  89 5   H  1S         -0.02131  -0.01392   0.04272  -0.03201   0.00421
  90        2S          0.07818  -0.29399   0.22565  -0.31412  -0.29859
  91        3S         -2.08118  -1.67324   2.22697  -2.73650  -5.42106
  92        4S        -10.64640   0.77742   0.18777  -0.37417  -7.91655
  93        5PX        -0.00146  -0.01177   0.00556  -0.01470  -0.01372
  94        5PY        -0.00237  -0.00095   0.01010  -0.00358  -0.01595
  95        5PZ         0.00000   0.00000   0.00000   0.00000   0.00000
  96        6PX         0.03078   0.13763  -0.10380   0.16809   0.15707
  97        6PY         0.05077   0.08504  -0.06503   0.09476   0.14408
  98        6PZ         0.00000   0.00000   0.00000   0.00000   0.00000
  99 6   H  1S          0.02131  -0.01392  -0.04272  -0.03201  -0.00421
 100        2S         -0.07818  -0.29399  -0.22566  -0.31411   0.29858
 101        3S          2.08118  -1.67324  -2.22700  -2.73646   5.42106
 102        4S         10.64640   0.77738  -0.18778  -0.37416   7.91654
 103        5PX        -0.00146   0.01177   0.00556   0.01470  -0.01372
 104        5PY         0.00237  -0.00095  -0.01010  -0.00358   0.01595
 105        5PZ         0.00000   0.00000   0.00000   0.00000   0.00000
 106        6PX         0.03078  -0.13763  -0.10381  -0.16809   0.15707
 107        6PY        -0.05077   0.08504   0.06503   0.09476  -0.14408
 108        6PZ         0.00000   0.00000   0.00000   0.00000   0.00000
                          26        27        28        29        30
                        (BU)--V   (AG)--V   (BU)--V   (AG)--V   (BG)--V
     Eigenvalues --     0.49078   0.56394   0.57280   0.66323   0.66663
   1 1   C  1S          0.02370   0.00704   0.00000  -0.00844   0.00000
   2        2S          0.04695   0.02285   0.00000  -0.00444   0.00000
   3        2PX         0.00000   0.00000   0.01368  -0.00000   0.00000
   4        2PY         0.04664   0.05252  -0.00000   0.11965   0.00000
   5        2PZ         0.00000   0.00000   0.00000   0.00000   0.00000
   6        3S         -0.01541  -0.28011  -0.00000  -0.21982   0.00000
   7        3PX         0.00000   0.00000   0.02471  -0.00000   0.00000
   8        3PY         0.35657   0.32364  -0.00000   0.30346   0.00000
   9        3PZ         0.00000   0.00000   0.00000   0.00000   0.00000
  10        4S         -8.49069  -0.58442   0.00001  -1.06041   0.00000
  11        4PX         0.00000  -0.00000   0.08760   0.00000   0.00000
  12        4PY         5.57289  -1.24154  -0.00000  -1.05747   0.00000
  13        4PZ         0.00000   0.00000   0.00000   0.00000  -0.00000
  14        5S         12.64457   2.18037  -0.00000  -1.33881   0.00000
  15        5PX        -0.00000   0.00001  -1.78611   0.00001   0.00000
  16        5PY        -5.63271   1.26014   0.00001   0.18870   0.00000
  17        5PZ         0.00000   0.00000   0.00000   0.00000   0.00000
  18        6D 0       -0.00616   0.00716  -0.00000   0.01804   0.00000
  19        6D+1        0.00000   0.00000   0.00000   0.00000   0.00486
  20        6D-1        0.00000   0.00000   0.00000   0.00000  -0.00000
  21        6D+2       -0.02259   0.04108   0.00000   0.01380   0.00000
  22        6D-2       -0.00000  -0.00000  -0.03546   0.00000   0.00000
  23        7D 0        0.26311  -0.08994  -0.00000   0.28613   0.00000
  24        7D+1        0.00000   0.00000   0.00000   0.00000   0.36184
  25        7D-1        0.00000   0.00000   0.00000   0.00000   0.00000
  26        7D+2        0.33088  -0.14354  -0.00000  -0.16683   0.00000
  27        7D-2        0.00000   0.00000  -0.05004   0.00000   0.00000
  28        8F 0        0.00000   0.00000   0.00000   0.00000   0.00000
  29        8F+1       -0.00000   0.00000  -0.00918  -0.00000   0.00000
  30        8F-1       -0.02532   0.02833   0.00000   0.01531   0.00000
  31        8F+2        0.00000   0.00000   0.00000   0.00000   0.00000
  32        8F-2        0.00000   0.00000   0.00000   0.00000  -0.01012
  33        8F+3       -0.00000   0.00000  -0.00858  -0.00000   0.00000
  34        8F-3       -0.02775   0.01136   0.00000   0.00395   0.00000
  35 2   C  1S         -0.02370   0.00704  -0.00000  -0.00844   0.00000
  36        2S         -0.04695   0.02285  -0.00000  -0.00444   0.00000
  37        2PX         0.00000  -0.00000   0.01368   0.00000   0.00000
  38        2PY         0.04664  -0.05252  -0.00000  -0.11965   0.00000
  39        2PZ         0.00000   0.00000   0.00000   0.00000  -0.00000
  40        3S          0.01541  -0.28011   0.00000  -0.21982   0.00000
  41        3PX         0.00000  -0.00000   0.02471   0.00000   0.00000
  42        3PY         0.35657  -0.32364  -0.00000  -0.30346   0.00000
  43        3PZ         0.00000   0.00000   0.00000   0.00000  -0.00000
  44        4S          8.49069  -0.58442  -0.00001  -1.06041   0.00000
  45        4PX         0.00000   0.00000   0.08760  -0.00000   0.00000
  46        4PY         5.57289   1.24154  -0.00000   1.05747   0.00000
  47        4PZ         0.00000   0.00000   0.00000   0.00000   0.00000
  48        5S        -12.64457   2.18037   0.00000  -1.33881   0.00000
  49        5PX        -0.00000  -0.00001  -1.78611  -0.00001   0.00000
  50        5PY        -5.63271  -1.26014   0.00001  -0.18870   0.00000
  51        5PZ         0.00000   0.00000   0.00000   0.00000  -0.00000
  52        6D 0        0.00616   0.00716   0.00000   0.01804   0.00000
  53        6D+1        0.00000   0.00000   0.00000   0.00000   0.00486
  54        6D-1        0.00000   0.00000   0.00000   0.00000  -0.00000
  55        6D+2        0.02259   0.04108  -0.00000   0.01380   0.00000
  56        6D-2        0.00000  -0.00000   0.03546   0.00000   0.00000
  57        7D 0       -0.26311  -0.08994   0.00000   0.28613   0.00000
  58        7D+1        0.00000   0.00000   0.00000   0.00000   0.36184
  59        7D-1        0.00000   0.00000   0.00000   0.00000   0.00000
  60        7D+2       -0.33088  -0.14354   0.00000  -0.16683   0.00000
  61        7D-2       -0.00000   0.00000   0.05004   0.00000   0.00000
  62        8F 0        0.00000   0.00000   0.00000   0.00000  -0.00000
  63        8F+1       -0.00000  -0.00000  -0.00918   0.00000   0.00000
  64        8F-1       -0.02532  -0.02833   0.00000  -0.01531   0.00000
  65        8F+2        0.00000   0.00000   0.00000   0.00000  -0.00000
  66        8F-2        0.00000   0.00000   0.00000   0.00000   0.01012
  67        8F+3       -0.00000  -0.00000  -0.00858   0.00000   0.00000
  68        8F-3       -0.02775  -0.01136   0.00000  -0.00395   0.00000
  69 3   H  1S          0.01431   0.02095  -0.07133  -0.06879   0.00000
  70        2S          0.07360   0.67206  -0.77034  -0.17601   0.00000
  71        3S          0.16723  -0.70002   1.92373   1.41506   0.00000
  72        4S         -1.92886  -0.63129   1.42273   0.16883   0.00000
  73        5PX         0.00489  -0.00303   0.01486   0.01308   0.00000
  74        5PY         0.01714   0.00195  -0.01390  -0.00408   0.00000
  75        5PZ         0.00000   0.00000   0.00000   0.00000  -0.01928
  76        6PX         0.05097   0.05303  -0.02591  -0.24260   0.00000
  77        6PY        -0.04201   0.12774   0.15946   0.13128   0.00000
  78        6PZ         0.00000   0.00000   0.00000   0.00000   0.25558
  79 4   H  1S          0.01431   0.02095   0.07133  -0.06879   0.00000
  80        2S          0.07360   0.67206   0.77034  -0.17601   0.00000
  81        3S          0.16723  -0.70002  -1.92372   1.41504   0.00000
  82        4S         -1.92886  -0.63130  -1.42273   0.16881   0.00000
  83        5PX        -0.00489   0.00303   0.01486  -0.01308   0.00000
  84        5PY         0.01714   0.00195   0.01390  -0.00408   0.00000
  85        5PZ         0.00000   0.00000   0.00000   0.00000   0.01928
  86        6PX        -0.05097  -0.05303  -0.02591   0.24260   0.00000
  87        6PY        -0.04201   0.12774  -0.15946   0.13128   0.00000
  88        6PZ         0.00000   0.00000   0.00000   0.00000  -0.25558
  89 5   H  1S         -0.01431   0.02095  -0.07133  -0.06879   0.00000
  90        2S         -0.07360   0.67206  -0.77034  -0.17601   0.00000
  91        3S         -0.16723  -0.70002   1.92372   1.41504   0.00000
  92        4S          1.92886  -0.63130   1.42273   0.16881   0.00000
  93        5PX        -0.00489  -0.00303   0.01486   0.01308   0.00000
  94        5PY         0.01714  -0.00195   0.01390   0.00408   0.00000
  95        5PZ         0.00000   0.00000   0.00000   0.00000  -0.01928
  96        6PX        -0.05097   0.05303  -0.02591  -0.24260   0.00000
  97        6PY        -0.04201  -0.12774  -0.15946  -0.13128   0.00000
  98        6PZ         0.00000   0.00000   0.00000   0.00000   0.25558
  99 6   H  1S         -0.01431   0.02095   0.07133  -0.06879   0.00000
 100        2S         -0.07360   0.67206   0.77034  -0.17601   0.00000
 101        3S         -0.16723  -0.70002  -1.92373   1.41506   0.00000
 102        4S          1.92886  -0.63129  -1.42273   0.16883   0.00000
 103        5PX         0.00489   0.00303   0.01486  -0.01308   0.00000
 104        5PY         0.01714  -0.00195  -0.01390   0.00408   0.00000
 105        5PZ         0.00000   0.00000   0.00000   0.00000   0.01928
 106        6PX         0.05097  -0.05303  -0.02591   0.24260   0.00000
 107        6PY        -0.04201  -0.12774   0.15946  -0.13128   0.00000
 108        6PZ         0.00000   0.00000   0.00000   0.00000  -0.25558
                          31        32        33        34        35
                        (AU)--V   (BU)--V   (BU)--V   (BU)--V   (BG)--V
     Eigenvalues --     0.69587   0.69715   0.71370   0.78102   0.78960
   1 1   C  1S          0.00000   0.04427   0.00000  -0.03300   0.00000
   2        2S          0.00000   0.07761   0.00000  -0.05911   0.00000
   3        2PX         0.00000   0.00000  -0.17922  -0.00000   0.00000
   4        2PY         0.00000  -0.00045  -0.00000   0.13189   0.00000
   5        2PZ        -0.12526   0.00000   0.00000   0.00000  -0.18132
   6        3S          0.00000  -0.16016  -0.00000   0.69806   0.00000
   7        3PX         0.00000  -0.00000   0.06561  -0.00000   0.00000
   8        3PY         0.00000   0.06556   0.00000  -0.05545   0.00000
   9        3PZ        -0.57830   0.00000   0.00000   0.00000  -0.64688
  10        4S          0.00000  -0.16451   0.00002  -9.58030   0.00000
  11        4PX         0.00000  -0.00003   2.64733   0.00000   0.00000
  12        4PY         0.00000   1.32726   0.00001   0.03552   0.00000
  13        4PZ         0.94104   0.00000   0.00000   0.00000   1.93744
  14        5S          0.00000  12.61987   0.00013  10.52081   0.00000
  15        5PX         0.00000   0.00002  -1.05923  -0.00000   0.00000
  16        5PY         0.00000  -2.02238  -0.00002  -1.29439   0.00000
  17        5PZ        -0.36255   0.00000   0.00000   0.00000  -1.03854
  18        6D 0        0.00000  -0.01585  -0.00000  -0.01804   0.00000
  19        6D+1       -0.00000   0.00000   0.00000   0.00000  -0.00000
  20        6D-1        0.00762   0.00000   0.00000   0.00000   0.00654
  21        6D+2        0.00000   0.00417   0.00000   0.00853   0.00000
  22        6D-2        0.00000   0.00000  -0.00538  -0.00000   0.00000
  23        7D 0        0.00000  -0.23379  -0.00000   0.80828   0.00000
  24        7D+1        0.00000   0.00000   0.00000   0.00000   0.00000
  25        7D-1        0.24365   0.00000   0.00000   0.00000  -0.36021
  26        7D+2        0.00000   0.08834   0.00000  -0.54939   0.00000
  27        7D-2        0.00000  -0.00001   0.76439   0.00000   0.00000
  28        8F 0       -0.00564   0.00000   0.00000   0.00000  -0.03047
  29        8F+1        0.00000   0.00000  -0.03844  -0.00000   0.00000
  30        8F-1        0.00000  -0.00293  -0.00000   0.00828   0.00000
  31        8F+2       -0.00079   0.00000   0.00000   0.00000  -0.03722
  32        8F-2        0.00000   0.00000   0.00000   0.00000   0.00000
  33        8F+3        0.00000   0.00000  -0.00352  -0.00000   0.00000
  34        8F-3        0.00000  -0.00725  -0.00000  -0.07622   0.00000
  35 2   C  1S          0.00000  -0.04427  -0.00000   0.03300   0.00000
  36        2S          0.00000  -0.07761  -0.00000   0.05911   0.00000
  37        2PX         0.00000   0.00000  -0.17922  -0.00000   0.00000
  38        2PY         0.00000  -0.00045  -0.00000   0.13189   0.00000
  39        2PZ        -0.12526   0.00000   0.00000   0.00000   0.18132
  40        3S          0.00000   0.16016   0.00000  -0.69806   0.00000
  41        3PX         0.00000  -0.00000   0.06561  -0.00000   0.00000
  42        3PY         0.00000   0.06556   0.00000  -0.05545   0.00000
  43        3PZ        -0.57830   0.00000   0.00000   0.00000   0.64688
  44        4S          0.00000   0.16451  -0.00002   9.58030   0.00000
  45        4PX         0.00000  -0.00003   2.64733   0.00000   0.00000
  46        4PY         0.00000   1.32726   0.00001   0.03552   0.00000
  47        4PZ         0.94104   0.00000   0.00000   0.00000  -1.93744
  48        5S          0.00000 -12.61987  -0.00013 -10.52081   0.00000
  49        5PX         0.00000   0.00002  -1.05923  -0.00000   0.00000
  50        5PY         0.00000  -2.02238  -0.00002  -1.29439   0.00000
  51        5PZ        -0.36255   0.00000   0.00000   0.00000   1.03854
  52        6D 0        0.00000   0.01585   0.00000   0.01804   0.00000
  53        6D+1        0.00000   0.00000   0.00000   0.00000  -0.00000
  54        6D-1       -0.00762   0.00000   0.00000   0.00000   0.00654
  55        6D+2        0.00000  -0.00417  -0.00000  -0.00853   0.00000
  56        6D-2        0.00000  -0.00000   0.00538   0.00000   0.00000
  57        7D 0        0.00000   0.23379   0.00000  -0.80828   0.00000
  58        7D+1       -0.00000   0.00000   0.00000   0.00000   0.00000
  59        7D-1       -0.24365   0.00000   0.00000   0.00000  -0.36021
  60        7D+2        0.00000  -0.08834  -0.00000   0.54939   0.00000
  61        7D-2        0.00000   0.00001  -0.76439  -0.00000   0.00000
  62        8F 0       -0.00564   0.00000   0.00000   0.00000   0.03047
  63        8F+1        0.00000   0.00000  -0.03844  -0.00000   0.00000
  64        8F-1        0.00000  -0.00293  -0.00000   0.00828   0.00000
  65        8F+2       -0.00079   0.00000   0.00000   0.00000   0.03722
  66        8F-2        0.00000   0.00000   0.00000   0.00000  -0.00000
  67        8F+3        0.00000   0.00000  -0.00352  -0.00000   0.00000
  68        8F-3        0.00000  -0.00725  -0.00000  -0.07622   0.00000
  69 3   H  1S          0.00000  -0.08496   0.04232   0.04383   0.00000
  70        2S          0.00000  -0.53462  -1.15091  -2.15644   0.00000
  71        3S          0.00000   2.31986  -1.51867  -0.91527   0.00000
  72        4S          0.00000   0.42925   1.68590   1.42350   0.00000
  73        5PX         0.00000   0.01929   0.00721   0.00712   0.00000
  74        5PY         0.00000  -0.00533  -0.00143  -0.00799   0.00000
  75        5PZ         0.00164   0.00000   0.00000   0.00000  -0.00449
  76        6PX         0.00000  -0.30859   0.49664   0.71429   0.00000
  77        6PY         0.00000   0.10862  -0.27789  -0.53211   0.00000
  78        6PZ        -0.01846   0.00000   0.00000   0.00000   0.04348
  79 4   H  1S          0.00000  -0.08496  -0.04232   0.04383   0.00000
  80        2S          0.00000  -0.53465   1.15091  -2.15644   0.00000
  81        3S          0.00000   2.31983   1.51873  -0.91527   0.00000
  82        4S          0.00000   0.42930  -1.68590   1.42350   0.00000
  83        5PX         0.00000  -0.01929   0.00721  -0.00712   0.00000
  84        5PY         0.00000  -0.00533   0.00143  -0.00799   0.00000
  85        5PZ         0.00164   0.00000   0.00000   0.00000  -0.00449
  86        6PX         0.00000   0.30858   0.49664  -0.71429   0.00000
  87        6PY         0.00000   0.10862   0.27789  -0.53210   0.00000
  88        6PZ        -0.01846   0.00000   0.00000   0.00000   0.04348
  89 5   H  1S          0.00000   0.08496   0.04232  -0.04383   0.00000
  90        2S          0.00000   0.53465  -1.15091   2.15644   0.00000
  91        3S          0.00000  -2.31983  -1.51873   0.91527   0.00000
  92        4S          0.00000  -0.42930   1.68590  -1.42350   0.00000
  93        5PX         0.00000  -0.01929   0.00721  -0.00712   0.00000
  94        5PY         0.00000  -0.00533   0.00143  -0.00799   0.00000
  95        5PZ         0.00164   0.00000   0.00000   0.00000   0.00449
  96        6PX         0.00000   0.30858   0.49664  -0.71429   0.00000
  97        6PY         0.00000   0.10862   0.27789  -0.53210   0.00000
  98        6PZ        -0.01846   0.00000   0.00000   0.00000  -0.04348
  99 6   H  1S          0.00000   0.08496  -0.04232  -0.04383   0.00000
 100        2S          0.00000   0.53462   1.15091   2.15644   0.00000
 101        3S          0.00000  -2.31986   1.51867   0.91527   0.00000
 102        4S          0.00000  -0.42925  -1.68590  -1.42350   0.00000
 103        5PX         0.00000   0.01929   0.00721   0.00712   0.00000
 104        5PY         0.00000  -0.00533  -0.00143  -0.00799   0.00000
 105        5PZ         0.00164   0.00000   0.00000   0.00000   0.00449
 106        6PX         0.00000  -0.30859   0.49664   0.71429   0.00000
 107        6PY         0.00000   0.10862  -0.27789  -0.53211   0.00000
 108        6PZ        -0.01846   0.00000   0.00000   0.00000  -0.04348
                          36        37        38        39        40
                        (AG)--V   (AU)--V   (AG)--V   (AU)--V   (BU)--V
     Eigenvalues --     0.80423   0.81416   0.85766   0.87843   0.91928
   1 1   C  1S          0.05769   0.00000  -0.00000   0.00000  -0.04517
   2        2S          0.11184   0.00000  -0.00000   0.00000  -0.07645
   3        2PX        -0.00000   0.00000  -0.18334   0.00000  -0.00000
   4        2PY        -0.06127   0.00000   0.00000   0.00000  -0.22151
   5        2PZ         0.00000   0.00000   0.00000  -0.05700   0.00000
   6        3S         -0.69285   0.00000   0.00000   0.00000   0.60446
   7        3PX         0.00000   0.00000  -0.12220   0.00000  -0.00000
   8        3PY         0.20791   0.00000   0.00000   0.00000   0.02554
   9        3PZ         0.00000   0.00000   0.00000  -0.26757   0.00000
  10        4S          4.49835   0.00000  -0.00000   0.00000 -14.35477
  11        4PX         0.00001   0.00000   6.46769   0.00000  -0.00000
  12        4PY         1.32350   0.00000  -0.00001   0.00000   7.26127
  13        4PZ         0.00000  -0.00000   0.00000   0.52818   0.00000
  14        5S         -2.52129   0.00000   0.00001   0.00000  15.22510
  15        5PX        -0.00000   0.00000   4.34559   0.00000  -0.00000
  16        5PY        -0.36903   0.00000  -0.00000   0.00000  -4.93663
  17        5PZ         0.00000   0.00000   0.00000  -0.09196   0.00000
  18        6D 0        0.00119   0.00000  -0.00000   0.00000   0.00862
  19        6D+1        0.00000  -0.01339   0.00000  -0.00000   0.00000
  20        6D-1        0.00000   0.00000   0.00000  -0.01391   0.00000
  21        6D+2        0.00969   0.00000   0.00000   0.00000   0.03787
  22        6D-2        0.00000   0.00000  -0.00277   0.00000  -0.00000
  23        7D 0       -0.13535   0.00000  -0.00000   0.00000   0.82172
  24        7D+1        0.00000  -0.12553   0.00000  -0.00000   0.00000
  25        7D-1        0.00000   0.00000   0.00000  -0.30997   0.00000
  26        7D+2        0.42810   0.00000   0.00000   0.00000   0.78109
  27        7D-2        0.00000   0.00000   0.90396   0.00000   0.00000
  28        8F 0        0.00000   0.00000   0.00000  -0.00525   0.00000
  29        8F+1       -0.00000   0.00000  -0.04977   0.00000  -0.00000
  30        8F-1       -0.02218   0.00000   0.00000   0.00000  -0.03776
  31        8F+2        0.00000  -0.00000   0.00000   0.01736   0.00000
  32        8F-2        0.00000   0.01907   0.00000   0.00000   0.00000
  33        8F+3        0.00000   0.00000   0.00164   0.00000  -0.00000
  34        8F-3        0.05956   0.00000  -0.00000   0.00000  -0.07546
  35 2   C  1S          0.05769   0.00000  -0.00000   0.00000   0.04517
  36        2S          0.11184   0.00000  -0.00000   0.00000   0.07645
  37        2PX         0.00000   0.00000   0.18334   0.00000  -0.00000
  38        2PY         0.06127   0.00000  -0.00000   0.00000  -0.22151
  39        2PZ         0.00000   0.00000   0.00000  -0.05700   0.00000
  40        3S         -0.69285   0.00000   0.00000   0.00000  -0.60446
  41        3PX        -0.00000   0.00000   0.12220   0.00000  -0.00000
  42        3PY        -0.20791   0.00000  -0.00000   0.00000   0.02554
  43        3PZ         0.00000   0.00000   0.00000  -0.26757   0.00000
  44        4S          4.49835   0.00000  -0.00000   0.00000  14.35477
  45        4PX        -0.00001   0.00000  -6.46769   0.00000  -0.00000
  46        4PY        -1.32350   0.00000   0.00001   0.00000   7.26127
  47        4PZ         0.00000  -0.00000   0.00000   0.52818   0.00000
  48        5S         -2.52129   0.00000   0.00001   0.00000 -15.22510
  49        5PX         0.00000   0.00000  -4.34559   0.00000  -0.00000
  50        5PY         0.36903   0.00000   0.00000   0.00000  -4.93663
  51        5PZ         0.00000   0.00000   0.00000  -0.09196   0.00000
  52        6D 0        0.00119   0.00000  -0.00000   0.00000  -0.00862
  53        6D+1        0.00000   0.01339   0.00000   0.00000   0.00000
  54        6D-1        0.00000  -0.00000   0.00000   0.01391   0.00000
  55        6D+2        0.00969   0.00000   0.00000   0.00000  -0.03787
  56        6D-2        0.00000   0.00000  -0.00277   0.00000   0.00000
  57        7D 0       -0.13535   0.00000  -0.00000   0.00000  -0.82172
  58        7D+1        0.00000   0.12553   0.00000   0.00000   0.00000
  59        7D-1        0.00000  -0.00000   0.00000   0.30997   0.00000
  60        7D+2        0.42810   0.00000   0.00000   0.00000  -0.78109
  61        7D-2        0.00000   0.00000   0.90396   0.00000  -0.00000
  62        8F 0        0.00000   0.00000   0.00000  -0.00525   0.00000
  63        8F+1        0.00000   0.00000   0.04977   0.00000  -0.00000
  64        8F-1        0.02218   0.00000  -0.00000   0.00000  -0.03776
  65        8F+2        0.00000  -0.00000   0.00000   0.01736   0.00000
  66        8F-2        0.00000   0.01907   0.00000   0.00000   0.00000
  67        8F+3       -0.00000   0.00000  -0.00164   0.00000  -0.00000
  68        8F-3       -0.05956   0.00000   0.00000   0.00000  -0.07546
  69 3   H  1S          0.03714   0.00000  -0.05019   0.00000   0.00945
  70        2S         -1.04474   0.00000   1.84655   0.00000  -0.83281
  71        3S         -0.95105   0.00000   4.11777   0.00000   0.48241
  72        4S          1.05762   0.00000   1.57978   0.00000  -0.84781
  73        5PX         0.00149   0.00000  -0.00385   0.00000   0.00742
  74        5PY        -0.00541   0.00000  -0.00187   0.00000   0.00661
  75        5PZ         0.00000  -0.02796   0.00000   0.02296   0.00000
  76        6PX         0.56353   0.00000  -0.61393   0.00000   0.14438
  77        6PY        -0.28057   0.00000   0.37532   0.00000  -0.35771
  78        6PZ         0.00000   0.48575   0.00000  -0.38733   0.00000
  79 4   H  1S          0.03714   0.00000   0.05019   0.00000   0.00945
  80        2S         -1.04475   0.00000  -1.84655   0.00000  -0.83281
  81        3S         -0.95106   0.00000  -4.11778   0.00000   0.48241
  82        4S          1.05763   0.00000  -1.57978   0.00000  -0.84781
  83        5PX        -0.00149   0.00000  -0.00385   0.00000  -0.00742
  84        5PY        -0.00541   0.00000   0.00187   0.00000   0.00661
  85        5PZ         0.00000   0.02796   0.00000   0.02296   0.00000
  86        6PX        -0.56353   0.00000  -0.61393   0.00000  -0.14438
  87        6PY        -0.28058   0.00000  -0.37532   0.00000  -0.35771
  88        6PZ         0.00000  -0.48574   0.00000  -0.38734   0.00000
  89 5   H  1S          0.03714   0.00000   0.05019   0.00000  -0.00945
  90        2S         -1.04475   0.00000  -1.84655   0.00000   0.83281
  91        3S         -0.95106   0.00000  -4.11778   0.00000  -0.48241
  92        4S          1.05763   0.00000  -1.57978   0.00000   0.84781
  93        5PX         0.00149   0.00000   0.00385   0.00000  -0.00742
  94        5PY         0.00541   0.00000  -0.00187   0.00000   0.00661
  95        5PZ         0.00000   0.02796   0.00000   0.02296   0.00000
  96        6PX         0.56353   0.00000   0.61393   0.00000  -0.14438
  97        6PY         0.28058   0.00000   0.37532   0.00000  -0.35771
  98        6PZ         0.00000  -0.48574   0.00000  -0.38734   0.00000
  99 6   H  1S          0.03714   0.00000  -0.05019   0.00000  -0.00945
 100        2S         -1.04474   0.00000   1.84655   0.00000   0.83281
 101        3S         -0.95105   0.00000   4.11777   0.00000  -0.48241
 102        4S          1.05762   0.00000   1.57978   0.00000   0.84781
 103        5PX        -0.00149   0.00000   0.00385   0.00000   0.00742
 104        5PY         0.00541   0.00000   0.00187   0.00000   0.00661
 105        5PZ         0.00000  -0.02796   0.00000   0.02296   0.00000
 106        6PX        -0.56353   0.00000   0.61393   0.00000   0.14438
 107        6PY         0.28057   0.00000  -0.37532   0.00000  -0.35771
 108        6PZ         0.00000   0.48575   0.00000  -0.38733   0.00000
                          41        42        43        44        45
                        (AG)--V   (AG)--V   (AG)--V   (BU)--V   (BG)--V
     Eigenvalues --     0.92261   1.00865   1.08866   1.11725   1.18592
   1 1   C  1S          0.00000   0.00213  -0.00000  -0.00000   0.00000
   2        2S          0.00000   0.01144  -0.00000  -0.00000   0.00000
   3        2PX        -0.10235  -0.00000   0.06469   0.02038   0.00000
   4        2PY        -0.00000   0.01864   0.00000  -0.00000   0.00000
   5        2PZ         0.00000   0.00000   0.00000   0.00000   0.05321
   6        3S         -0.00000  -0.36700  -0.00000   0.00000   0.00000
   7        3PX        -0.23440   0.00000  -0.01478   0.20746   0.00000
   8        3PY        -0.00000   0.08816   0.00000   0.00000   0.00000
   9        3PZ         0.00000   0.00000   0.00000   0.00000   0.16091
  10        4S          0.00001   2.13233   0.00001  -0.00001   0.00000
  11        4PX        -1.09810   0.00000   3.04244   1.44733   0.00000
  12        4PY         0.00001   1.33778   0.00000   0.00001   0.00000
  13        4PZ         0.00000   0.00000   0.00000   0.00000   1.38034
  14        5S         -0.00000  -0.83364  -0.00000   0.00001   0.00000
  15        5PX         6.46756   0.00000  -2.01011  -0.34103   0.00000
  16        5PY        -0.00001  -0.36153  -0.00000  -0.00000   0.00000
  17        5PZ         0.00000   0.00000   0.00000   0.00000  -0.25301
  18        6D 0        0.00000   0.01131   0.00000   0.00000   0.00000
  19        6D+1        0.00000   0.00000   0.00000   0.00000   0.00000
  20        6D-1        0.00000   0.00000   0.00000   0.00000  -0.00395
  21        6D+2        0.00000   0.00935   0.00000   0.00000   0.00000
  22        6D-2        0.02741  -0.00000   0.01155  -0.01517   0.00000
  23        7D 0       -0.00000  -0.66673  -0.00000  -0.00000   0.00000
  24        7D+1        0.00000   0.00000   0.00000   0.00000  -0.00001
  25        7D-1        0.00000   0.00000   0.00000   0.00000   0.09175
  26        7D+2        0.00000   0.23829   0.00000   0.00000   0.00000
  27        7D-2       -0.68533   0.00001  -0.17879   0.42784   0.00000
  28        8F 0        0.00000   0.00000   0.00000   0.00000  -0.02203
  29        8F+1        0.01137  -0.00000  -0.01387  -0.00749   0.00000
  30        8F-1       -0.00000  -0.01548  -0.00000  -0.00000   0.00000
  31        8F+2        0.00000   0.00000   0.00000   0.00000   0.02094
  32        8F-2        0.00000   0.00000   0.00000   0.00000  -0.00000
  33        8F+3       -0.01387   0.00000   0.03022   0.02076   0.00000
  34        8F-3        0.00000   0.04114   0.00000  -0.00000   0.00000
  35 2   C  1S          0.00000   0.00213  -0.00000   0.00000   0.00000
  36        2S          0.00000   0.01144  -0.00000   0.00000   0.00000
  37        2PX         0.10235   0.00000  -0.06469   0.02038   0.00000
  38        2PY         0.00000  -0.01864  -0.00000  -0.00000   0.00000
  39        2PZ         0.00000   0.00000   0.00000   0.00000  -0.05321
  40        3S         -0.00000  -0.36700  -0.00000  -0.00000   0.00000
  41        3PX         0.23440  -0.00000   0.01478   0.20746   0.00000
[...]
   9        2PY        -0.05764   0.14866  -0.00000  -0.22438   0.00000
  10        2PZ        -0.00000   0.00000   0.00000   0.00000   0.40231
  11 3   H  1S          0.01319  -0.04345  -0.03534   0.05161   0.00000
  12 4   H  1S          0.01319  -0.04345   0.03534   0.05161   0.00000
  13 5   H  1S         -0.05028   0.13883   0.23914   0.13875  -0.00000
  14 6   H  1S         -0.05028   0.13883  -0.23914   0.13875  -0.00000
                           6         7         8         9        10
   6 2   C  1S          1.03783
   7        2S         -0.11539   0.41798
   8        2PX         0.00000   0.00000   0.31615
   9        2PY         0.00303  -0.02879   0.00000   0.30918
  10        2PZ         0.00000  -0.00000  -0.00000   0.00000   0.40231
  11 3   H  1S         -0.05028   0.13883   0.23914  -0.13875   0.00000
  12 4   H  1S         -0.05028   0.13883  -0.23914  -0.13875   0.00000
  13 5   H  1S          0.01319  -0.04345  -0.03534  -0.05161  -0.00000
  14 6   H  1S          0.01319  -0.04345   0.03534  -0.05161  -0.00000
                          11        12        13        14
  11 3   H  1S          0.28611
  12 4   H  1S         -0.08467   0.28611
  13 5   H  1S         -0.04414   0.06650   0.28611
  14 6   H  1S          0.06650  -0.04414  -0.08467   0.28611
     Beta  MBS Density Matrix:
                           1         2         3         4         5
   1 1   C  1S          1.03783
   2        2S         -0.11539   0.41798
   3        2PX        -0.00000  -0.00000   0.31615
   4        2PY        -0.00303   0.02879   0.00000   0.30918
   5        2PZ        -0.00000   0.00000  -0.00000   0.00000   0.40231
   6 2   C  1S          0.01308  -0.03218   0.00000   0.05764   0.00000
   7        2S         -0.03218   0.04472  -0.00000  -0.14866  -0.00000
   8        2PX        -0.00000   0.00000   0.00318  -0.00000  -0.00000
   9        2PY        -0.05764   0.14866  -0.00000  -0.22438   0.00000
  10        2PZ        -0.00000   0.00000   0.00000   0.00000   0.40231
  11 3   H  1S          0.01319  -0.04345  -0.03534   0.05161   0.00000
  12 4   H  1S          0.01319  -0.04345   0.03534   0.05161   0.00000
  13 5   H  1S         -0.05028   0.13883   0.23914   0.13875  -0.00000
  14 6   H  1S         -0.05028   0.13883  -0.23914   0.13875  -0.00000
                           6         7         8         9        10
   6 2   C  1S          1.03783
   7        2S         -0.11539   0.41798
   8        2PX         0.00000   0.00000   0.31615
   9        2PY         0.00303  -0.02879   0.00000   0.30918
  10        2PZ         0.00000  -0.00000  -0.00000   0.00000   0.40231
  11 3   H  1S         -0.05028   0.13883   0.23914  -0.13875   0.00000
  12 4   H  1S         -0.05028   0.13883  -0.23914  -0.13875   0.00000
  13 5   H  1S          0.01319  -0.04345  -0.03534  -0.05161  -0.00000
  14 6   H  1S          0.01319  -0.04345   0.03534  -0.05161  -0.00000
                          11        12        13        14
  11 3   H  1S          0.28611
  12 4   H  1S         -0.08467   0.28611
  13 5   H  1S         -0.04414   0.06650   0.28611
  14 6   H  1S          0.06650  -0.04414  -0.08467   0.28611
    Full MBS Mulliken population analysis:
                           1         2         3         4         5
   1 1   C  1S          2.07567
   2        2S         -0.05731   0.83596
   3        2PX         0.00000   0.00000   0.63230
   4        2PY         0.00000   0.00000   0.00000   0.61836
   5        2PZ         0.00000   0.00000   0.00000   0.00000   0.80463
   6 2   C  1S          0.00000  -0.00287   0.00000  -0.00853  -0.00000
   7        2S         -0.00287   0.03598  -0.00000   0.12305   0.00000
   8        2PX         0.00000  -0.00000   0.00154  -0.00000  -0.00000
   9        2PY        -0.00853   0.12305  -0.00000   0.14702  -0.00000
  10        2PZ        -0.00000   0.00000   0.00000  -0.00000   0.19537
  11 3   H  1S          0.00016  -0.00918  -0.00416  -0.01252   0.00000
  12 4   H  1S          0.00016  -0.00918  -0.00416  -0.01252  -0.00000
  13 5   H  1S         -0.00634   0.13707   0.19072   0.06851  -0.00000
  14 6   H  1S         -0.00634   0.13707   0.19072   0.06851  -0.00000
                           6         7         8         9        10
   6 2   C  1S          2.07567
   7        2S         -0.05731   0.83596
   8        2PX         0.00000   0.00000   0.63230
   9        2PY         0.00000   0.00000   0.00000   0.61836
  10        2PZ         0.00000   0.00000   0.00000   0.00000   0.80463
  11 3   H  1S         -0.00634   0.13707   0.19072   0.06851   0.00000
  12 4   H  1S         -0.00634   0.13707   0.19072   0.06851   0.00000
  13 5   H  1S          0.00016  -0.00918  -0.00416  -0.01252  -0.00000
  14 6   H  1S          0.00016  -0.00918  -0.00416  -0.01252  -0.00000
                          11        12        13        14
  11 3   H  1S          0.57223
  12 4   H  1S         -0.02590   0.57223
  13 5   H  1S         -0.00463   0.00204   0.57223
  14 6   H  1S          0.00204  -0.00463  -0.02590   0.57223
     MBS Gross orbital populations:
                         Total     Alpha     Beta      Spin
   1 1   C  1S          1.99460   0.99730   0.99730   0.00000
   2        2S          1.19058   0.59529   0.59529   0.00000
   3        2PX         1.00696   0.50348   0.50348   0.00000
   4        2PY         0.99188   0.49594   0.49594   0.00000
   5        2PZ         1.00000   0.50000   0.50000   0.00000
   6 2   C  1S          1.99460   0.99730   0.99730   0.00000
   7        2S          1.19058   0.59529   0.59529   0.00000
   8        2PX         1.00696   0.50348   0.50348   0.00000
   9        2PY         0.99188   0.49594   0.49594   0.00000
  10        2PZ         1.00000   0.50000   0.50000   0.00000
  11 3   H  1S          0.90800   0.45400   0.45400   0.00000
  12 4   H  1S          0.90800   0.45400   0.45400   0.00000
  13 5   H  1S          0.90800   0.45400   0.45400   0.00000
  14 6   H  1S          0.90800   0.45400   0.45400   0.00000
          MBS Condensed to atoms (all electrons):
               1          2          3          4          5          6
     1  C    4.852283   0.603204  -0.025702  -0.025702   0.389962   0.389961
     2  C    0.603204   4.852283   0.389961   0.389962  -0.025702  -0.025702
     3  H   -0.025702   0.389961   0.572228  -0.025898  -0.004631   0.002038
     4  H   -0.025702   0.389962  -0.025898   0.572227   0.002038  -0.004631
     5  H    0.389962  -0.025702  -0.004631   0.002038   0.572227  -0.025898
     6  H    0.389961  -0.025702   0.002038  -0.004631  -0.025898   0.572228
          MBS Atomic-Atomic Spin Densities.
               1          2          3          4          5          6
     1  C    0.000000   0.000000   0.000000   0.000000   0.000000   0.000000
     2  C    0.000000   0.000000   0.000000   0.000000   0.000000   0.000000
     3  H    0.000000   0.000000   0.000000   0.000000   0.000000   0.000000
     4  H    0.000000   0.000000   0.000000   0.000000   0.000000   0.000000
     5  H    0.000000   0.000000   0.000000   0.000000   0.000000   0.000000
     6  H    0.000000   0.000000   0.000000   0.000000   0.000000   0.000000
 MBS Mulliken charges and spin densities:
               1          2
     1  C   -0.184007   0.000000
     2  C   -0.184007   0.000000
     3  H    0.092003   0.000000
     4  H    0.092003   0.000000
     5  H    0.092003   0.000000
     6  H    0.092003   0.000000
 Sum of MBS Mulliken charges =  -0.00000   0.00000
 MBS Mulliken charges and spin densities with hydrogens summed into heavy atoms:
               1          2
     1  C   -0.000000   0.000000
     2  C    0.000000   0.000000
 MBS Atomic Valencies and Mayer Atomic Bond Orders:
               1          2          3          4          5          6
     1  C    3.956717   2.015086   0.002794   0.002794   0.968021   0.968021
     2  C    2.015086   3.956717   0.968021   0.968021   0.002794   0.002794
     3  H    0.002794   0.968021   0.991535   0.007233   0.003745   0.009742
     4  H    0.002794   0.968021   0.007233   0.991535   0.009742   0.003745
     5  H    0.968021   0.002794   0.003745   0.009742   0.991535   0.007233
     6  H    0.968021   0.002794   0.009742   0.003745   0.007233   0.991535
 MBS Mayer-style numbers of lone pairs (8.000 valence pairs, 2.060 lone pairs):
               1
     1  C    1.113645
     2  C    1.113645
     3  H   -0.041769
     4  H   -0.041769
     5  H   -0.041769
     6  H   -0.041769
 BEBO parameters in MulMin, MxElBE=  0:
 ELP=  0.00000000000     EBEBO=-0.433690381090E-15 Sum=-0.433690381090E-15
 ELP=  0.00000000000     EBEBO=-0.433690381090E-15 EJK=-0.433690381090E-15  0.00000000000     Sum=-0.433690381090E-15
 0 EA=-0.216845190545E-15 EB=-0.216845190545E-15 ETot=-0.433690381090E-15
 1 EA=-0.216845190545E-15 EB=-0.216845190545E-15 ETot=-0.433690381090E-15
 2 EA=-0.216845190545E-15 EB=-0.216845190545E-15 ETot=-0.433690381090E-15
 3 EJ=-0.433690381090E-15 EK=  0.00000000000     ETot=-0.433690381090E-15
 4 EJ=-0.433690381090E-15 EK=  0.00000000000     ETot=-0.433690381090E-15
 5 EA=-0.216845190545E-15 EB=-0.216845190545E-15 ETot=-0.433690381090E-15
 Orbital energies and kinetic energies (alpha):
                                 1                 2
   1         (AG)--O         -11.230317         16.012566
   2         (BU)--O         -11.228548         16.030457
   3         (AG)--O          -1.035613          1.497508
   4         (BU)--O          -0.792407          1.231347
   5         (BU)--O          -0.642879          0.927529
   6         (AG)--O          -0.590377          1.279167
   7         (AG)--O          -0.505667          1.045353
   8         (AU)--O          -0.378889          0.952956
   9         (AG)--V           0.048427          0.097815
  10         (BU)--V           0.060942          0.098600
  11         (BU)--V           0.062992          0.092943
  12         (AG)--V           0.082018          0.096776
  13         (BG)--V           0.106017          0.379674
  14         (AU)--V           0.128916          0.220267
  15         (AG)--V           0.140412          0.174302
  16         (BU)--V           0.172900          0.196608
  17         (AG)--V           0.185579          0.243585
  18         (BU)--V           0.204010          0.270241
  19         (BU)--V           0.219263          0.320360
  20         (BG)--V           0.226896          0.895498
  21         (AG)--V           0.230283          0.311046
  22         (AG)--V           0.254379          0.575158
  23         (BU)--V           0.283461          0.610045
  24         (BU)--V           0.306511          0.610291
  25         (AG)--V           0.449492          0.732317
  26         (BU)--V           0.490781          0.851164
  27         (AG)--V           0.563945          0.864073
  28         (BU)--V           0.572797          0.984902
  29         (AG)--V           0.663228          1.292208
  30         (BG)--V           0.666629          0.940909
  31         (AU)--V           0.695866          1.288084
  32         (BU)--V           0.697155          1.463195
  33         (BU)--V           0.713702          1.275156
  34         (BU)--V           0.781019          1.291998
  35         (BG)--V           0.789600          1.658212
  36         (AG)--V           0.804230          1.602185
  37         (AU)--V           0.814163          1.041962
  38         (AG)--V           0.857662          1.458415
  39         (AU)--V           0.878427          1.207609
  40         (BU)--V           0.919277          2.115916
  41         (AG)--V           0.922611          1.400660
  42         (AG)--V           1.008647          1.230441
  43         (AG)--V           1.088664          1.314777
  44         (BU)--V           1.117251          1.306963
  45         (BG)--V           1.185919          1.374667
  46         (BG)--V           1.207822          1.371129
  47         (AU)--V           1.234169          1.517307
  48         (BU)--V           1.333436          1.668646
  49         (AG)--V           1.347204          1.687196
  50         (BU)--V           1.395348          1.789510
  51         (BG)--V           1.405934          1.700467
  52         (AU)--V           1.597799          1.817210
  53         (BU)--V           1.610295          2.373958
  54         (AG)--V           1.625991          1.942227
  55         (BU)--V           1.649398          2.486911
  56         (AG)--V           1.725320          2.588841
  57         (AG)--V           1.751761          3.161647
  58         (BU)--V           1.767820          3.126569
  59         (BU)--V           1.831020          2.865743
  60         (AG)--V           1.979576          2.319850
  61         (AG)--V           2.696066          3.642253
  62         (BU)--V           2.811247          4.061563
  63         (BU)--V           2.848874          3.789186
  64         (AU)--V           2.973413          3.941542
  65         (AG)--V           3.031927          4.276602
  66         (AU)--V           3.087058          5.884096
  67         (AG)--V           3.107023          4.004823
  68         (BG)--V           3.107383          3.688893
  69         (BG)--V           3.152234          5.829631
  70         (BU)--V           3.214142          4.216730
  71         (AU)--V           3.238606          4.245838
  72         (BU)--V           3.299772          4.614146
  73         (AG)--V           3.389550          4.569025
  74         (BG)--V           3.409891          4.070075
  75         (AU)--V           3.426753          4.154618
  76         (BG)--V           3.478335          4.585202
  77         (AG)--V           3.490485          4.493688
  78         (AG)--V           3.534638          5.120630
  79         (BU)--V           3.564050          4.372210
  80         (BU)--V           3.574049          4.442681
  81         (BG)--V           3.653112          4.816812
  82         (BU)--V           3.727506          5.230187
  83         (AG)--V           3.779784          5.661662
  84         (AG)--V           3.937044          5.129507
  85         (AU)--V           3.986415          4.863179
  86         (AG)--V           4.004932          4.843413
  87         (AU)--V           4.034233          5.127792
  88         (BU)--V           4.141193          6.023108
  89         (BU)--V           4.171115          6.596077
  90         (AG)--V           4.352420          5.080877
  91         (BU)--V           4.410868          5.114838
  92         (AU)--V           4.417416          5.120839
  93         (BG)--V           4.517029          5.265924
  94         (BG)--V           4.619078          5.267862
  95         (AG)--V           4.621422          6.403652
  96         (BU)--V           4.747188          5.880566
  97         (AU)--V           4.771940          5.405539
  98         (AG)--V           4.921246          7.408110
  99         (BG)--V           5.062355          6.323001
 100         (BU)--V           5.122969          5.980177
 101         (AG)--V           5.492543          6.946962
 102         (BU)--V           5.558376          7.650038
 103         (AG)--V           5.838023          6.811272
 104         (BU)--V           5.931925          7.338218
 105         (AG)--V           6.097953          7.499831
 106         (BU)--V           6.482048          8.351628
 107         (AG)--V          25.118299         60.408781
 108         (BU)--V          25.950049         60.847624
 Total kinetic energy from orbitals= 7.795376723303D+01
                          Isotropic Fermi Contact Couplings
        Atom                 a.u.       MegaHertz       Gauss      10(-4) cm-1
     1  C(13)             -0.00000      -0.00000      -0.00000      -0.00000
     2  C(13)             -0.00000      -0.00000      -0.00000      -0.00000
     3  H(1)              -0.00000      -0.00000      -0.00000      -0.00000
     4  H(1)              -0.00000      -0.00000      -0.00000      -0.00000
     5  H(1)              -0.00000      -0.00000      -0.00000      -0.00000
     6  H(1)              -0.00000      -0.00000      -0.00000      -0.00000
 --------------------------------------------------------
       Center         ----  Spin Dipole Couplings  ----
                      3XX-RR        3YY-RR        3ZZ-RR
 --------------------------------------------------------
     1   Atom        0.000000      0.000000      0.000000
     2   Atom        0.000000      0.000000      0.000000
     3   Atom        0.000000      0.000000      0.000000
     4   Atom        0.000000      0.000000      0.000000
     5   Atom        0.000000      0.000000      0.000000
     6   Atom        0.000000      0.000000      0.000000
 --------------------------------------------------------
                        XY            XZ            YZ
 --------------------------------------------------------
     1   Atom        0.000000      0.000000      0.000000
     2   Atom        0.000000      0.000000      0.000000
     3   Atom        0.000000      0.000000      0.000000
     4   Atom        0.000000      0.000000      0.000000
     5   Atom        0.000000      0.000000      0.000000
     6   Atom        0.000000      0.000000      0.000000
 --------------------------------------------------------


 ---------------------------------------------------------------------------------
              Anisotropic Spin Dipole Couplings in Principal Axis System
 ---------------------------------------------------------------------------------

       Atom             a.u.   MegaHertz   Gauss  10(-4) cm-1        Axes

              Baa     0.0000     0.000     0.000     0.000  1.0000  0.0000  0.0000
     1 C(13)  Bbb     0.0000     0.000     0.000     0.000 -0.0000  1.0000  0.0000
              Bcc     0.0000     0.000     0.000     0.000  0.0000  0.0000  1.0000
 
              Baa     0.0000     0.000     0.000     0.000  1.0000  0.0000  0.0000
     2 C(13)  Bbb     0.0000     0.000     0.000     0.000 -0.0000  1.0000  0.0000
              Bcc     0.0000     0.000     0.000     0.000  0.0000  0.0000  1.0000
 
              Baa     0.0000     0.000     0.000     0.000  1.0000  0.0000  0.0000
     3 H(1)   Bbb     0.0000     0.000     0.000     0.000 -0.0000  1.0000  0.0000
              Bcc     0.0000     0.000     0.000     0.000  0.0000  0.0000  1.0000
 
              Baa     0.0000     0.000     0.000     0.000  1.0000  0.0000  0.0000
     4 H(1)   Bbb     0.0000     0.000     0.000     0.000 -0.0000  1.0000  0.0000
              Bcc     0.0000     0.000     0.000     0.000  0.0000  0.0000  1.0000
 
              Baa     0.0000     0.000     0.000     0.000  1.0000  0.0000  0.0000
     5 H(1)   Bbb     0.0000     0.000     0.000     0.000 -0.0000  1.0000  0.0000
              Bcc     0.0000     0.000     0.000     0.000  0.0000  0.0000  1.0000
 
              Baa     0.0000     0.000     0.000     0.000  1.0000  0.0000  0.0000
     6 H(1)   Bbb     0.0000     0.000     0.000     0.000 -0.0000  1.0000  0.0000
              Bcc     0.0000     0.000     0.000     0.000  0.0000  0.0000  1.0000
 

 ---------------------------------------------------------------------------------


 Test job not archived.
 1\1\GINC-SMP-N71\SP\ROHF\CBSB3\C2H4\BLZ11\04-Aug-2021\0\\# SP ROHF/CBS
 B3 Pop=(Full) scf=tight IOp(6/27=122)\\H2C2H2\\0,1\C,0,-0.191937,0.608
 723,-0.181205\C,0,0.191937,-0.608723,0.181205\H,0,1.109246,-1.052763,-
 0.191001\H,0,-0.394953,-1.212595,0.865355\H,0,0.394953,1.212595,-0.865
 355\H,0,-1.109246,1.052763,0.191001\\Version=ES64L-G16RevC.01\State=1-
 AG\HF=-78.0621886\RMSD=6.890e-09\Dipole=0.,0.,0.\Quadrupole=0.1662611,
 0.6079425,-0.7742036,-0.5871925,-1.0343503,-0.869768\PG=C02H [SGH(C2H4
 )]\\@


 I SUPPOSE A BABY LLAMA HAS A MMAMA AND A PPOPA.
     -- RICHARD AMOUR
 File lengths (MBytes):  RWF=     10 Int=      0 D2E=      0 Chk=      2 Scr=      1
