 Entering Gaussian System, Link 0=g16
 Initial command:
 /ihome/crc/build/gaussian/c01/avx2/tar/g16/l1.exe "/scratch/slurm-5135576/Gau-193246.inp" -scrdir="/scratch/slurm-5135576/"
 Entering Link 1 = /ihome/crc/build/gaussian/c01/avx2/tar/g16/l1.exe PID=    193249.
  
 Copyright (c) 1988-2019, Gaussian, Inc.  All Rights Reserved.
  
 This is part of the Gaussian(R) 16 program.  It is based on
 the Gaussian(R) 09 system (copyright 2009, Gaussian, Inc.),
 the Gaussian(R) 03 system (copyright 2003, Gaussian, Inc.),
 the Gaussian(R) 98 system (copyright 1998, Gaussian, Inc.),
 the Gaussian(R) 94 system (copyright 1995, Gaussian, Inc.),
 the Gaussian 92(TM) system (copyright 1992, Gaussian, Inc.),
 the Gaussian 90(TM) system (copyright 1990, Gaussian, Inc.),
 the Gaussian 88(TM) system (copyright 1988, Gaussian, Inc.),
 the Gaussian 86(TM) system (copyright 1986, Carnegie Mellon
 University), and the Gaussian 82(TM) system (copyright 1983,
 Carnegie Mellon University). Gaussian is a federally registered
 trademark of Gaussian, Inc.
  
 This software contains proprietary and confidential information,
 including trade secrets, belonging to Gaussian, Inc.
  
 This software is provided under written license and may be
 used, copied, transmitted, or stored only in accord with that
 written license.
  
 The following legend is applicable only to US Government
 contracts under FAR:
  
                    RESTRICTED RIGHTS LEGEND
  
 Use, reproduction and disclosure by the US Government is
 subject to restrictions as set forth in subparagraphs (a)
 and (c) of the Commercial Computer Software - Restricted
 Rights clause in FAR 52.227-19.
  
 Gaussian, Inc.
 340 Quinnipiac St., Bldg. 40, Wallingford CT 06492
  
  
 ---------------------------------------------------------------
 Warning -- This program may not be used in any manner that
 competes with the business of Gaussian, Inc. or will provide
 assistance to any competitor of Gaussian, Inc.  The licensee
 of this program is prohibited from giving any competitor of
 Gaussian, Inc. access to this program.  By using this program,
 the user acknowledges that Gaussian, Inc. is engaged in the
 business of creating and licensing software in the field of
 computational chemistry and represents and warrants to the
 licensee that it is not a competitor of Gaussian, Inc. and that
 it will not use this program in any manner prohibited above.
 ---------------------------------------------------------------
  

 Cite this work as:
 Gaussian 16, Revision C.01,
 M. J. Frisch, G. W. Trucks, H. B. Schlegel, G. E. Scuseria, 
 M. A. Robb, J. R. Cheeseman, G. Scalmani, V. Barone, 
 G. A. Petersson, H. Nakatsuji, X. Li, M. Caricato, A. V. Marenich, 
 J. Bloino, B. G. Janesko, R. Gomperts, B. Mennucci, H. P. Hratchian, 
 J. V. Ortiz, A. F. Izmaylov, J. L. Sonnenberg, D. Williams-Young, 
 F. Ding, F. Lipparini, F. Egidi, J. Goings, B. Peng, A. Petrone, 
 T. Henderson, D. Ranasinghe, V. G. Zakrzewski, J. Gao, N. Rega, 
 G. Zheng, W. Liang, M. Hada, M. Ehara, K. Toyota, R. Fukuda, 
 J. Hasegawa, M. Ishida, T. Nakajima, Y. Honda, O. Kitao, H. Nakai, 
 T. Vreven, K. Throssell, J. A. Montgomery, Jr., J. E. Peralta, 
 F. Ogliaro, M. J. Bearpark, J. J. Heyd, E. N. Brothers, K. N. Kudin, 
 V. N. Staroverov, T. A. Keith, R. Kobayashi, J. Normand, 
 K. Raghavachari, A. P. Rendell, J. C. Burant, S. S. Iyengar, 
 J. Tomasi, M. Cossi, J. M. Millam, M. Klene, C. Adamo, R. Cammi, 
 J. W. Ochterski, R. L. Martin, K. Morokuma, O. Farkas, 
 J. B. Foresman, and D. J. Fox, Gaussian, Inc., Wallingford CT, 2019.
 
 ******************************************
 Gaussian 16:  ES64L-G16RevC.01  3-Jul-2019
                29-Jan-2022 
 ******************************************
 --------------------------------------------------
 # SP ROHF/CBSB3 Pop=(Full) scf=tight IOp(6/27=122)
 --------------------------------------------------
 1/38=1,172=1/1;
 2/12=2,17=6,18=5,40=1/2;
 3/5=12,11=2,25=1,30=1,116=101/1,2,3;
 4//1;
 5/5=2,32=2,38=5/2;
 6/7=3,27=122,28=1/1;
 99/5=1,9=1/99;
 ---
 LiF
 ---
 Symbolic Z-matrix:
 Charge =  0 Multiplicity = 1
 Li
 F                    1    R1
       Variables:
  R1                    1.5697                   
 
                          Input orientation:                          
 ---------------------------------------------------------------------
 Center     Atomic      Atomic             Coordinates (Angstroms)
 Number     Number       Type             X           Y           Z
 ---------------------------------------------------------------------
      1          3           0        0.000000    0.000000    0.000000
      2          9           0        0.000000    0.000000    1.569700
 ---------------------------------------------------------------------
 Stoichiometry    FLi
 Framework group  C*V[C*(LiF)]
 Deg. of freedom     1
 Full point group                 C*V     NOp   4
 Largest Abelian subgroup         C2V     NOp   4
 Largest concise Abelian subgroup C1      NOp   1
                         Standard orientation:                         
 ---------------------------------------------------------------------
 Center     Atomic      Atomic             Coordinates (Angstroms)
 Number     Number       Type             X           Y           Z
 ---------------------------------------------------------------------
      1          3           0        0.000000    0.000000   -1.177275
      2          9           0        0.000000    0.000000    0.392425
 ---------------------------------------------------------------------
 Rotational constants (GHZ):           0.0000000          40.0304863          40.0304863
 Standard basis: CBSB3 (5D, 7F)
 There are    36 symmetry adapted cartesian basis functions of A1  symmetry.
 There are     6 symmetry adapted cartesian basis functions of A2  symmetry.
 There are    18 symmetry adapted cartesian basis functions of B1  symmetry.
 There are    18 symmetry adapted cartesian basis functions of B2  symmetry.
 There are    30 symmetry adapted basis functions of A1  symmetry.
 There are     6 symmetry adapted basis functions of A2  symmetry.
 There are    16 symmetry adapted basis functions of B1  symmetry.
 There are    16 symmetry adapted basis functions of B2  symmetry.
    68 basis functions,   104 primitive gaussians,    78 cartesian basis functions
     6 alpha electrons        6 beta electrons
       nuclear repulsion energy         9.1022390870 Hartrees.
 NAtoms=    2 NActive=    2 NUniq=    2 SFac= 1.00D+00 NAtFMM=   60 NAOKFM=F Big=F
 Integral buffers will be    131072 words long.
 Raffenetti 2 integral format.
 Two-electron integral symmetry is turned on.
 One-electron integrals computed using PRISM.
 NBasis=    68 RedAO= T EigKep=  2.14D-03  NBF=    30     6    16    16
 NBsUse=    68 1.00D-06 EigRej= -1.00D+00 NBFU=    30     6    16    16
 ExpMin= 7.40D-03 ExpMax= 1.14D+04 ExpMxC= 1.72D+03 IAcc=3 IRadAn=         5 AccDes= 0.00D+00
 Harris functional with IExCor=  205 and IRadAn=       5 diagonalized for initial guess.
 HarFok:  IExCor=  205 AccDes= 0.00D+00 IRadAn=         5 IDoV= 1 UseB2=F ITyADJ=14
 ICtDFT=  3500011 ScaDFX=  1.000000  1.000000  1.000000  1.000000
 FoFCou: FMM=F IPFlag=           0 FMFlag=      100000 FMFlg1=           0
         NFxFlg=           0 DoJE=T BraDBF=F KetDBF=T FulRan=T
         wScrn=  0.000000 ICntrl=       500 IOpCl=  0 I1Cent=   200000004 NGrid=           0
         NMat0=    1 NMatS0=      1 NMatT0=    0 NMatD0=    1 NMtDS0=    0 NMtDT0=    0
 Petite list used in FoFCou.
 Initial guess orbital symmetries:
       Occupied  (SG) (SG) (SG) (SG) (PI) (PI)
       Virtual   (SG) (PI) (PI) (SG) (SG) (PI) (PI) (SG) (SG) (PI)
                 (PI) (SG) (DLTA) (DLTA) (PI) (PI) (SG) (SG) (PI)
                 (PI) (SG) (PI) (PI) (DLTA) (DLTA) (PHI) (PHI)
                 (SG) (PI) (PI) (SG) (PI) (PI) (DLTA) (DLTA) (SG)
                 (PI) (PI) (SG) (SG) (DLTA) (DLTA) (SG) (PI) (PI)
                 (SG) (PI) (PI) (SG) (DLTA) (DLTA) (PHI) (PHI)
                 (PI) (PI) (SG) (DLTA) (DLTA) (PI) (PI) (SG) (SG)
 The electronic state of the initial guess is 1-SG.
 Keep R1 and R2 ints in memory in symmetry-blocked form, NReq=4714340.
 Requested convergence on RMS density matrix=1.00D-08 within 128 cycles.
 Requested convergence on MAX density matrix=1.00D-06.
 Requested convergence on             energy=1.00D-06.
 No special actions if energy rises.
 SCF Done:  E(ROHF) =  -106.978062179     A.U. after    9 cycles
            NFock=  9  Conv=0.25D-08     -V/T= 2.0006
 <Sx>= 0.0000 <Sy>= 0.0000 <Sz>= 0.0000 <S**2>=-0.0000 S=-0.0000
 <L.S>=  0.00000000000    
 Annihilation of the first spin contaminant:
 S**2 before annihilation    -0.0000,   after    -0.0000

 **********************************************************************

            Population analysis using the SCF Density.

 **********************************************************************

 Orbital symmetries:
       Occupied  (SG) (SG) (SG) (SG) (PI) (PI)
       Virtual   (SG) (PI) (PI) (SG) (SG) (PI) (PI) (SG) (SG) (PI)
                 (PI) (SG) (DLTA) (DLTA) (PI) (PI) (SG) (SG) (PI)
                 (PI) (SG) (PI) (PI) (PHI) (PHI) (DLTA) (DLTA)
                 (SG) (PI) (PI) (SG) (DLTA) (DLTA) (PI) (PI) (SG)
                 (PI) (PI) (SG) (SG) (DLTA) (DLTA) (SG) (PI) (PI)
                 (SG) (PI) (PI) (SG) (DLTA) (DLTA) (PHI) (PHI)
                 (PI) (PI) (SG) (DLTA) (DLTA) (PI) (PI) (SG) (SG)
 The electronic state is 1-SG.
 Alpha  occ. eigenvalues --  -26.11481  -2.43810  -1.37817  -0.49950  -0.47610
 Alpha  occ. eigenvalues --   -0.47610
 Alpha virt. eigenvalues --   -0.01050   0.01549   0.01549   0.02063   0.02851
 Alpha virt. eigenvalues --    0.06170   0.06170   0.08801   0.14274   0.17403
 Alpha virt. eigenvalues --    0.17403   0.21634   0.29241   0.29241   0.35068
 Alpha virt. eigenvalues --    0.35068   0.36076   0.42853   0.45557   0.45557
 Alpha virt. eigenvalues --    0.58942   0.59524   0.59524   0.62076   0.62076
 Alpha virt. eigenvalues --    0.62711   0.62711   0.73071   0.78610   0.78610
 Alpha virt. eigenvalues --    0.90979   1.32380   1.32380   1.34987   1.34987
 Alpha virt. eigenvalues --    1.52295   1.78072   1.78072   1.81221   2.43667
 Alpha virt. eigenvalues --    2.54036   2.54036   2.64078   2.78061   2.78061
 Alpha virt. eigenvalues --    4.47754   7.11883   7.11883   7.17803   7.31412
 Alpha virt. eigenvalues --    7.31412   7.31464   7.31464   7.36251   7.36251
 Alpha virt. eigenvalues --    7.39025   9.89621   9.89621  10.01958  10.01958
 Alpha virt. eigenvalues --   10.09080  68.98481
     Molecular Orbital Coefficients:
                           1         2         3         4         5
                           O         O         O         O         O
     Eigenvalues --   -26.11481  -2.43810  -1.37817  -0.49950  -0.47610
   1 1   Li 1S         -0.00002   0.61523  -0.04173   0.05875   0.00000
   2        2S         -0.00002   0.42897  -0.03759   0.07728   0.00000
   3        2PX         0.00000   0.00000   0.00000   0.00000   0.00000
   4        2PY         0.00000   0.00000   0.00000   0.00000   0.04750
   5        2PZ         0.00013  -0.02004   0.02262  -0.10372   0.00000
   6        3S         -0.00063  -0.03085   0.09728  -0.13788   0.00000
   7        3PX         0.00000   0.00000   0.00000   0.00000   0.00000
   8        3PY         0.00000   0.00000   0.00000   0.00000   0.04473
   9        3PZ        -0.00039  -0.01426   0.04847  -0.04814   0.00000
  10        4S          0.00006   0.00772  -0.02160   0.05344   0.00000
  11        4PX         0.00000   0.00000   0.00000   0.00000   0.00000
  12        4PY         0.00000   0.00000   0.00000   0.00000  -0.00411
  13        4PZ         0.00007   0.00157  -0.00939   0.01510   0.00000
  14        5S         -0.00001  -0.00192   0.00478  -0.01310   0.00000
  15        5PX         0.00000   0.00000   0.00000   0.00000   0.00000
  16        5PY         0.00000   0.00000   0.00000   0.00000   0.00132
  17        5PZ        -0.00002  -0.00026   0.00188  -0.00288   0.00000
  18        6D 0        0.00011  -0.00372   0.00234  -0.02142   0.00000
  19        6D+1        0.00000   0.00000   0.00000   0.00000   0.00000
  20        6D-1        0.00000   0.00000   0.00000   0.00000   0.01343
  21        6D+2       -0.00000  -0.00000   0.00000   0.00000   0.00000
  22        6D-2        0.00000   0.00000   0.00000   0.00000   0.00000
  23        7D 0       -0.00001  -0.00983   0.01037  -0.01523   0.00000
  24        7D+1        0.00000   0.00000   0.00000   0.00000   0.00000
  25        7D-1        0.00000   0.00000   0.00000   0.00000   0.02652
  26        7D+2       -0.00000  -0.00000   0.00000  -0.00000   0.00000
  27        7D-2        0.00000   0.00000   0.00000   0.00000   0.00000
  28        8F 0        0.00009  -0.00379  -0.00098  -0.01093   0.00000
  29        8F+1        0.00000   0.00000   0.00000   0.00000   0.00000
  30        8F-1        0.00000   0.00000   0.00000   0.00000   0.00540
  31        8F+2       -0.00000  -0.00000   0.00000   0.00000   0.00000
  32        8F-2        0.00000   0.00000   0.00000   0.00000   0.00000
  33        8F+3        0.00000   0.00000   0.00000   0.00000   0.00000
  34        8F-3        0.00000   0.00000   0.00000   0.00000   0.00000
  35 2   F  1S          0.54768  -0.00316  -0.12412  -0.00813   0.00000
  36        2S          0.47349  -0.00516  -0.20795  -0.01392   0.00000
  37        2PX         0.00000   0.00000   0.00000   0.00000   0.00000
  38        2PY         0.00000   0.00000   0.00000   0.00000   0.29250
  39        2PZ        -0.00034  -0.00425  -0.00898   0.29447   0.00000
  40        3S          0.00619   0.01256   0.60481   0.04742   0.00000
  41        3PX         0.00000   0.00000   0.00000   0.00000   0.00000
  42        3PY         0.00000   0.00000   0.00000   0.00000   0.44075
  43        3PZ         0.00008  -0.00719  -0.01457   0.44425   0.00000
  44        4S         -0.00103   0.01996   0.52487   0.05300   0.00000
  45        4PX         0.00000   0.00000   0.00000   0.00000   0.00000
  46        4PY         0.00000   0.00000   0.00000   0.00000   0.41297
  47        4PZ         0.00012  -0.01196  -0.03065   0.39624   0.00000
  48        5S          0.00125   0.02777  -0.09448   0.08545   0.00000
  49        5PX         0.00000   0.00000   0.00000   0.00000   0.00000
  50        5PY         0.00000   0.00000   0.00000   0.00000   0.06159
  51        5PZ        -0.00037  -0.00218   0.03460   0.05700   0.00000
  52        6D 0        0.00003   0.00018  -0.00010  -0.00112   0.00000
  53        6D+1        0.00000   0.00000   0.00000   0.00000   0.00000
  54        6D-1        0.00000   0.00000   0.00000   0.00000  -0.00072
  55        6D+2       -0.00000   0.00000   0.00000  -0.00000   0.00000
  56        6D-2        0.00000   0.00000   0.00000   0.00000   0.00000
  57        7D 0       -0.00002   0.00322   0.00595  -0.01108   0.00000
  58        7D+1        0.00000   0.00000   0.00000   0.00000   0.00000
  59        7D-1        0.00000   0.00000   0.00000   0.00000  -0.01218
  60        7D+2        0.00000   0.00000  -0.00000   0.00000   0.00000
  61        7D-2        0.00000   0.00000   0.00000   0.00000   0.00000
  62        8F 0        0.00000  -0.00047  -0.00074   0.00124   0.00000
  63        8F+1        0.00000   0.00000   0.00000   0.00000   0.00000
  64        8F-1        0.00000   0.00000   0.00000   0.00000   0.00119
  65        8F+2       -0.00000  -0.00000  -0.00000  -0.00000   0.00000
  66        8F-2        0.00000   0.00000   0.00000   0.00000   0.00000
  67        8F+3        0.00000   0.00000   0.00000   0.00000   0.00000
  68        8F-3        0.00000   0.00000   0.00000   0.00000   0.00000
                           6         7         8         9        10
                           O         V         V         V         V
     Eigenvalues --    -0.47610  -0.01050   0.01549   0.01549   0.02063
   1 1   Li 1S          0.00000  -0.03547   0.00000   0.00000  -0.02981
   2        2S          0.00000  -0.06221   0.00000   0.00000  -0.05078
   3        2PX         0.04750   0.00000   0.00218   0.00000   0.00000
   4        2PY         0.00000   0.00000   0.00000   0.00218   0.00000
   5        2PZ         0.00000  -0.03898   0.00000   0.00000  -0.03540
   6        3S          0.00000   0.13519   0.00000   0.00000   0.13781
   7        3PX         0.04473   0.00000   0.12381   0.00000   0.00000
   8        3PY         0.00000   0.00000   0.00000   0.12381   0.00000
   9        3PZ         0.00000  -0.12653   0.00000   0.00000   0.14455
  10        4S          0.00000   0.21433   0.00000   0.00000   0.90768
  11        4PX        -0.00411   0.00000  -0.23841   0.00000   0.00000
  12        4PY         0.00000   0.00000   0.00000  -0.23841   0.00000
  13        4PZ         0.00000  -0.23017   0.00000   0.00000  -0.65833
  14        5S          0.00000   0.59543   0.00000   0.00000  -0.62142
  15        5PX         0.00132   0.00000   1.11934   0.00000   0.00000
  16        5PY         0.00000   0.00000   0.00000   1.11934   0.00000
  17        5PZ         0.00000  -0.25754   0.00000   0.00000   1.10851
  18        6D 0        0.00000  -0.00064   0.00000   0.00000  -0.00201
  19        6D+1        0.01343   0.00000  -0.00006   0.00000   0.00000
  20        6D-1        0.00000   0.00000   0.00000  -0.00006   0.00000
  21        6D+2        0.00000   0.00000   0.00000   0.00000  -0.00000
  22        6D-2        0.00000   0.00000   0.00000   0.00000   0.00000
  23        7D 0        0.00000   0.01863   0.00000   0.00000   0.07087
  24        7D+1        0.02652   0.00000  -0.00932   0.00000   0.00000
  25        7D-1        0.00000   0.00000   0.00000  -0.00932   0.00000
  26        7D+2        0.00000   0.00000   0.00000   0.00000  -0.00000
  27        7D-2        0.00000   0.00000   0.00000   0.00000   0.00000
  28        8F 0        0.00000  -0.00290   0.00000   0.00000   0.01460
  29        8F+1        0.00540   0.00000   0.00578   0.00000   0.00000
  30        8F-1        0.00000   0.00000   0.00000   0.00578   0.00000
  31        8F+2        0.00000   0.00000   0.00000   0.00000  -0.00000
  32        8F-2        0.00000   0.00000   0.00000   0.00000   0.00000
  33        8F+3       -0.00000   0.00000   0.00000   0.00000   0.00000
  34        8F-3        0.00000   0.00000   0.00000   0.00000   0.00000
  35 2   F  1S          0.00000   0.00252   0.00000   0.00000   0.00276
  36        2S          0.00000   0.00430   0.00000   0.00000   0.00477
  37        2PX         0.29250   0.00000  -0.00888   0.00000   0.00000
  38        2PY         0.00000   0.00000   0.00000  -0.00888   0.00000
  39        2PZ         0.00000   0.00615   0.00000   0.00000   0.00397
  40        3S          0.00000  -0.01336   0.00000   0.00000  -0.01631
  41        3PX         0.44075   0.00000  -0.01468   0.00000   0.00000
  42        3PY         0.00000   0.00000   0.00000  -0.01468   0.00000
  43        3PZ         0.00000   0.01027   0.00000   0.00000   0.00665
  44        4S          0.00000  -0.01622   0.00000   0.00000  -0.01376
  45        4PX         0.41297   0.00000  -0.00845   0.00000   0.00000
  46        4PY         0.00000   0.00000   0.00000  -0.00845   0.00000
  47        4PZ         0.00000   0.00312   0.00000   0.00000   0.00320
  48        5S          0.00000  -0.01083   0.00000   0.00000  -0.24220
  49        5PX         0.06159   0.00000  -0.04561   0.00000   0.00000
  50        5PY         0.00000   0.00000   0.00000  -0.04561   0.00000
  51        5PZ         0.00000   0.03769   0.00000   0.00000   0.05317
  52        6D 0        0.00000  -0.00005   0.00000   0.00000  -0.00022
  53        6D+1       -0.00072   0.00000  -0.00012   0.00000   0.00000
  54        6D-1        0.00000   0.00000   0.00000  -0.00012   0.00000
  55        6D+2        0.00000   0.00000   0.00000   0.00000   0.00000
  56        6D-2        0.00000   0.00000   0.00000   0.00000   0.00000
  57        7D 0        0.00000  -0.00146   0.00000   0.00000  -0.00035
  58        7D+1       -0.01218   0.00000   0.00052   0.00000   0.00000
  59        7D-1        0.00000   0.00000   0.00000   0.00052   0.00000
  60        7D+2        0.00000  -0.00000   0.00000   0.00000   0.00000
  61        7D-2        0.00000   0.00000   0.00000   0.00000   0.00000
  62        8F 0        0.00000   0.00026   0.00000   0.00000   0.00020
  63        8F+1        0.00119   0.00000  -0.00002   0.00000   0.00000
  64        8F-1        0.00000   0.00000   0.00000  -0.00002   0.00000
  65        8F+2        0.00000   0.00000   0.00000   0.00000  -0.00000
  66        8F-2        0.00000   0.00000   0.00000   0.00000   0.00000
  67        8F+3        0.00000   0.00000   0.00000   0.00000   0.00000
  68        8F-3        0.00000   0.00000   0.00000   0.00000   0.00000
                          11        12        13        14        15
                           V         V         V         V         V
     Eigenvalues --     0.02851   0.06170   0.06170   0.08801   0.14274
   1 1   Li 1S         -0.01975   0.00000   0.00000  -0.02150   0.07199
   2        2S         -0.02917   0.00000   0.00000  -0.04544   0.16823
   3        2PX         0.00000   0.00000   0.07356   0.00000   0.00000
   4        2PY         0.00000   0.07356   0.00000   0.00000   0.00000
   5        2PZ        -0.05192   0.00000   0.00000  -0.02826   0.04175
   6        3S         -0.69099   0.00000   0.00000  -1.50396  -2.28833
   7        3PX         0.00000   0.00000  -0.11903   0.00000   0.00000
   8        3PY         0.00000  -0.11903   0.00000   0.00000   0.00000
   9        3PZ        -0.51345   0.00000   0.00000  -1.41703   0.79484
  10        4S          1.46622   0.00000   0.00000   1.25217   2.60525
  11        4PX         0.00000   0.00000   1.45318   0.00000   0.00000
  12        4PY         0.00000   1.45318   0.00000   0.00000   0.00000
  13        4PZ         0.23168   0.00000   0.00000   1.97631  -0.66595
  14        5S         -1.45528   0.00000   0.00000  -0.36540  -0.86634
  15        5PX         0.00000   0.00000  -0.80600   0.00000   0.00000
  16        5PY         0.00000  -0.80600   0.00000   0.00000   0.00000
  17        5PZ        -0.57640   0.00000   0.00000  -0.74555   0.21787
  18        6D 0       -0.00215   0.00000   0.00000   0.02077  -0.01628
  19        6D+1        0.00000   0.00000  -0.00011   0.00000   0.00000
  20        6D-1        0.00000  -0.00011   0.00000   0.00000   0.00000
  21        6D+2        0.00000   0.00000   0.00000   0.00000   0.00000
  22        6D-2        0.00000   0.00000   0.00000   0.00000   0.00000
  23        7D 0       -0.06658   0.00000   0.00000  -0.34603  -0.04804
  24        7D+1        0.00000   0.00000  -0.08865   0.00000   0.00000
  25        7D-1        0.00000  -0.08865   0.00000   0.00000   0.00000
  26        7D+2        0.00000   0.00000   0.00000   0.00000   0.00000
  27        7D-2        0.00000   0.00000   0.00000   0.00000   0.00000
  28        8F 0       -0.01157   0.00000   0.00000  -0.02197   0.05462
  29        8F+1        0.00000   0.00000  -0.00118   0.00000   0.00000
  30        8F-1        0.00000  -0.00118   0.00000   0.00000   0.00000
  31        8F+2       -0.00000   0.00000   0.00000  -0.00000  -0.00000
  32        8F-2        0.00000   0.00000   0.00000   0.00000   0.00000
  33        8F+3        0.00000   0.00000  -0.00000   0.00000   0.00000
  34        8F-3        0.00000   0.00000   0.00000   0.00000   0.00000
  35 2   F  1S         -0.00036   0.00000   0.00000   0.00915   0.00131
  36        2S         -0.00076   0.00000   0.00000   0.01564   0.00238
  37        2PX         0.00000   0.00000  -0.02869   0.00000   0.00000
  38        2PY         0.00000  -0.02869   0.00000   0.00000   0.00000
  39        2PZ         0.00599   0.00000   0.00000   0.00086  -0.00457
  40        3S          0.00546   0.00000   0.00000  -0.04839  -0.01000
  41        3PX         0.00000   0.00000  -0.05095   0.00000   0.00000
  42        3PY         0.00000  -0.05095   0.00000   0.00000   0.00000
  43        3PZ         0.01006   0.00000   0.00000  -0.01179  -0.00539
  44        4S         -0.02659   0.00000   0.00000  -0.08981  -0.03968
  45        4PX         0.00000   0.00000  -0.01070   0.00000   0.00000
  46        4PY         0.00000  -0.01070   0.00000   0.00000   0.00000
  47        4PZ         0.00125   0.00000   0.00000   0.07344  -0.00755
  48        5S          0.47909   0.00000   0.00000   1.09940   0.05052
  49        5PX         0.00000   0.00000  -0.11260   0.00000   0.00000
  50        5PY         0.00000  -0.11260   0.00000   0.00000   0.00000
  51        5PZ        -0.12779   0.00000   0.00000  -0.56277  -0.28831
  52        6D 0       -0.00044   0.00000   0.00000   0.00032  -0.00178
  53        6D+1        0.00000   0.00000  -0.00013   0.00000   0.00000
  54        6D-1        0.00000  -0.00013   0.00000   0.00000   0.00000
  55        6D+2       -0.00000   0.00000   0.00000  -0.00000   0.00000
  56        6D-2        0.00000   0.00000   0.00000   0.00000   0.00000
  57        7D 0        0.00137   0.00000   0.00000  -0.00469   0.00963
  58        7D+1        0.00000   0.00000  -0.00041   0.00000   0.00000
  59        7D-1        0.00000  -0.00041   0.00000   0.00000   0.00000
  60        7D+2       -0.00000   0.00000   0.00000  -0.00000  -0.00000
  61        7D-2        0.00000   0.00000   0.00000   0.00000   0.00000
  62        8F 0        0.00002   0.00000   0.00000   0.00054  -0.00092
  63        8F+1        0.00000   0.00000  -0.00014   0.00000   0.00000
  64        8F-1        0.00000  -0.00014   0.00000   0.00000   0.00000
  65        8F+2       -0.00000   0.00000   0.00000  -0.00000   0.00000
  66        8F-2        0.00000   0.00000   0.00000   0.00000   0.00000
  67        8F+3        0.00000   0.00000  -0.00000   0.00000   0.00000
  68        8F-3        0.00000  -0.00000   0.00000   0.00000   0.00000
                          16        17        18        19        20
                           V         V         V         V         V
     Eigenvalues --     0.17403   0.17403   0.21634   0.29241   0.29241
   1 1   Li 1S          0.00000   0.00000  -0.04132   0.00000   0.00000
   2        2S          0.00000   0.00000  -0.10457   0.00000   0.00000
   3        2PX         0.07234   0.00000   0.00000   0.00000   0.00000
   4        2PY         0.00000   0.07234   0.00000   0.00000   0.00000
   5        2PZ         0.00000   0.00000   0.10823   0.00000  -0.00000
   6        3S          0.00000   0.00000   5.05853   0.00000   0.00000
   7        3PX         1.67240   0.00000   0.00000   0.00000   0.00000
   8        3PY         0.00000   1.67240   0.00000   0.00000   0.00000
   9        3PZ         0.00000   0.00000   3.89737   0.00000   0.00000
  10        4S          0.00000   0.00000  -1.77220   0.00000   0.00000
  11        4PX        -1.54586   0.00000   0.00000   0.00000   0.00000
  12        4PY         0.00000  -1.54586   0.00000   0.00000   0.00000
  13        4PZ         0.00000   0.00000  -1.67807   0.00000  -0.00000
  14        5S          0.00000   0.00000   0.40026   0.00000  -0.00000
  15        5PX         0.49029   0.00000   0.00000   0.00000   0.00000
  16        5PY         0.00000   0.49029   0.00000   0.00000   0.00000
  17        5PZ         0.00000   0.00000   0.41238   0.00000   0.00000
  18        6D 0        0.00000   0.00000   0.00098   0.00000   0.00000
  19        6D+1       -0.00278   0.00000   0.00000   0.00000   0.00000
  20        6D-1        0.00000  -0.00278   0.00000   0.00000   0.00000
  21        6D+2        0.00000   0.00000  -0.00000   0.00000  -0.05906
  22        6D-2        0.00000   0.00000   0.00000  -0.05906   0.00000
  23        7D 0        0.00000   0.00000   0.44195   0.00000   0.00000
  24        7D+1       -0.18536   0.00000   0.00000   0.00000   0.00000
  25        7D-1        0.00000  -0.18536   0.00000   0.00000   0.00000
  26        7D+2        0.00000   0.00000   0.00000   0.00000   1.02021
  27        7D-2        0.00000   0.00000   0.00000   1.02021   0.00000
  28        8F 0        0.00000   0.00000   0.14090   0.00000   0.00000
  29        8F+1        0.04119   0.00000   0.00000   0.00000   0.00000
  30        8F-1        0.00000   0.04119   0.00000   0.00000   0.00000
  31        8F+2        0.00000   0.00000  -0.00000   0.00000  -0.10082
  32        8F-2        0.00000   0.00000   0.00000  -0.10082   0.00000
  33        8F+3        0.00000   0.00000   0.00000   0.00000   0.00000
  34        8F-3        0.00000   0.00000   0.00000   0.00000   0.00000
  35 2   F  1S          0.00000   0.00000   0.01316   0.00000  -0.00000
  36        2S          0.00000   0.00000   0.02390   0.00000  -0.00000
  37        2PX        -0.03200   0.00000   0.00000   0.00000   0.00000
  38        2PY         0.00000  -0.03200   0.00000   0.00000   0.00000
  39        2PZ         0.00000   0.00000   0.03661   0.00000  -0.00000
  40        3S          0.00000   0.00000  -0.10449   0.00000   0.00000
  41        3PX        -0.04889   0.00000   0.00000   0.00000   0.00000
  42        3PY         0.00000  -0.04889   0.00000   0.00000   0.00000
  43        3PZ         0.00000   0.00000   0.05355   0.00000  -0.00000
  44        4S          0.00000   0.00000   0.15367   0.00000   0.00000
  45        4PX        -0.05042   0.00000   0.00000   0.00000   0.00000
  46        4PY         0.00000  -0.05042   0.00000   0.00000   0.00000
  47        4PZ         0.00000   0.00000   0.08352   0.00000  -0.00000
  48        5S          0.00000   0.00000  -4.24295   0.00000  -0.00000
  49        5PX        -0.19356   0.00000   0.00000   0.00000   0.00000
  50        5PY         0.00000  -0.19356   0.00000   0.00000   0.00000
  51        5PZ         0.00000   0.00000   1.13601   0.00000   0.00000
  52        6D 0        0.00000   0.00000   0.00134   0.00000   0.00000
  53        6D+1       -0.00141   0.00000   0.00000   0.00000   0.00000
  54        6D-1        0.00000  -0.00141   0.00000   0.00000   0.00000
  55        6D+2        0.00000   0.00000   0.00000   0.00000   0.00130
  56        6D-2        0.00000   0.00000   0.00000   0.00130   0.00000
  57        7D 0        0.00000   0.00000  -0.01414   0.00000  -0.00000
  58        7D+1       -0.00182   0.00000   0.00000   0.00000   0.00000
  59        7D-1        0.00000  -0.00182   0.00000   0.00000   0.00000
  60        7D+2        0.00000   0.00000   0.00000   0.00000   0.00548
  61        7D-2        0.00000   0.00000   0.00000   0.00548   0.00000
  62        8F 0        0.00000   0.00000   0.00128   0.00000   0.00000
  63        8F+1        0.00020   0.00000   0.00000   0.00000   0.00000
  64        8F-1        0.00000   0.00020   0.00000   0.00000   0.00000
  65        8F+2        0.00000   0.00000   0.00000   0.00000  -0.00053
  66        8F-2        0.00000   0.00000   0.00000  -0.00053   0.00000
  67        8F+3        0.00000   0.00000   0.00000   0.00000   0.00000
  68        8F-3        0.00000  -0.00000   0.00000   0.00000   0.00000
                          21        22        23        24        25
                           V         V         V         V         V
     Eigenvalues --     0.35068   0.35068   0.36076   0.42853   0.45557
   1 1   Li 1S          0.00000   0.00000  -0.00183   0.00228   0.00000
   2        2S          0.00000   0.00000  -0.00667   0.09945   0.00000
   3        2PX         0.00000   0.03215   0.00000   0.00000   0.06768
   4        2PY         0.03215   0.00000   0.00000   0.00000   0.00000
   5        2PZ         0.00000   0.00000  -0.07147   0.08905   0.00000
   6        3S          0.00000   0.00000  -4.73752  -2.08514   0.00000
   7        3PX         0.00000   0.60223   0.00000   0.00000  -1.70553
   8        3PY         0.60223   0.00000   0.00000   0.00000   0.00000
   9        3PZ         0.00000   0.00000  -3.99314  -3.01563   0.00000
  10        4S          0.00000   0.00000   0.75609  -0.73706   0.00000
  11        4PX         0.00000  -0.32221   0.00000   0.00000   0.22272
  12        4PY        -0.32221   0.00000   0.00000   0.00000   0.00000
  13        4PZ         0.00000   0.00000   1.18449   0.19531   0.00000
  14        5S          0.00000   0.00000  -0.09116   0.16240   0.00000
  15        5PX         0.00000   0.08697   0.00000   0.00000  -0.04365
  16        5PY         0.08697   0.00000   0.00000   0.00000   0.00000
  17        5PZ         0.00000   0.00000  -0.24963  -0.03976   0.00000
  18        6D 0        0.00000   0.00000   0.08051  -0.09306   0.00000
  19        6D+1        0.00000  -0.06569   0.00000   0.00000   0.02490
  20        6D-1       -0.06569   0.00000   0.00000   0.00000   0.00000
  21        6D+2        0.00000   0.00000  -0.00000  -0.00000   0.00000
  22        6D-2        0.00000   0.00000   0.00000   0.00000   0.00000
  23        7D 0        0.00000   0.00000  -1.96273  -1.66172   0.00000
  24        7D+1        0.00000   1.07492   0.00000   0.00000  -1.33698
  25        7D-1        1.07492   0.00000   0.00000   0.00000   0.00000
  26        7D+2        0.00000   0.00000   0.00000   0.00000   0.00000
  27        7D-2        0.00000   0.00000   0.00000   0.00000   0.00000
  28        8F 0        0.00000   0.00000   0.03386  -0.34180   0.00000
  29        8F+1        0.00000  -0.17157   0.00000   0.00000  -0.13149
  30        8F-1       -0.17157   0.00000   0.00000   0.00000   0.00000
  31        8F+2        0.00000   0.00000  -0.00000   0.00000   0.00000
  32        8F-2        0.00000   0.00000   0.00000   0.00000   0.00000
  33        8F+3        0.00000  -0.00000   0.00000   0.00000  -0.00000
  34        8F-3        0.00000   0.00000   0.00000   0.00000   0.00000
  35 2   F  1S          0.00000   0.00000  -0.01524   0.02080   0.00000
  36        2S          0.00000   0.00000  -0.02626   0.03545   0.00000
  37        2PX         0.00000  -0.08678   0.00000   0.00000  -0.08556
  38        2PY        -0.08678   0.00000   0.00000   0.00000   0.00000
  39        2PZ         0.00000   0.00000   0.04654  -0.05359   0.00000
  40        3S          0.00000   0.00000   0.08860  -0.10931   0.00000
  41        3PX         0.00000  -0.09909   0.00000   0.00000  -0.05398
  42        3PY        -0.09909   0.00000   0.00000   0.00000   0.00000
  43        3PZ         0.00000   0.00000   0.04896   0.00811   0.00000
  44        4S          0.00000   0.00000   0.08476  -0.22499   0.00000
  45        4PX         0.00000  -0.27512   0.00000   0.00000  -0.51013
  46        4PY        -0.27512   0.00000   0.00000   0.00000   0.00000
  47        4PZ         0.00000   0.00000   0.20659  -0.60899   0.00000
  48        5S          0.00000   0.00000   5.07868   4.69441   0.00000
  49        5PX         0.00000  -0.10131   0.00000   0.00000   2.72597
  50        5PY        -0.10131   0.00000   0.00000   0.00000   0.00000
  51        5PZ         0.00000   0.00000  -1.44520   1.03150   0.00000
  52        6D 0        0.00000   0.00000   0.00208   0.00016   0.00000
  53        6D+1        0.00000  -0.00078   0.00000   0.00000   0.00428
  54        6D-1       -0.00078   0.00000   0.00000   0.00000   0.00000
  55        6D+2        0.00000   0.00000  -0.00000   0.00000   0.00000
  56        6D-2        0.00000   0.00000   0.00000   0.00000   0.00000
  57        7D 0        0.00000   0.00000  -0.00929   0.02373   0.00000
  58        7D+1        0.00000  -0.00475   0.00000   0.00000   0.00046
  59        7D-1       -0.00475   0.00000   0.00000   0.00000   0.00000
  60        7D+2        0.00000   0.00000  -0.00000   0.00000   0.00000
  61        7D-2        0.00000   0.00000   0.00000   0.00000   0.00000
  62        8F 0        0.00000   0.00000   0.00136  -0.00220   0.00000
  63        8F+1        0.00000   0.00061   0.00000   0.00000  -0.00060
  64        8F-1        0.00061   0.00000   0.00000   0.00000   0.00000
  65        8F+2        0.00000   0.00000  -0.00000  -0.00000   0.00000
  66        8F-2        0.00000   0.00000   0.00000   0.00000   0.00000
  67        8F+3        0.00000  -0.00000   0.00000   0.00000   0.00000
  68        8F-3        0.00000   0.00000   0.00000   0.00000   0.00000
                          26        27        28        29        30
                           V         V         V         V         V
     Eigenvalues --     0.45557   0.58942   0.59524   0.59524   0.62076
   1 1   Li 1S          0.00000  -0.03499   0.00000   0.00000   0.00000
   2        2S          0.00000  -0.13612   0.00000   0.00000   0.00000
   3        2PX         0.00000   0.00000  -1.24337   0.00000  -0.00000
   4        2PY         0.06768   0.00000   0.00000  -1.24337   0.00000
   5        2PZ         0.00000   0.14431   0.00000   0.00000   0.00000
   6        3S          0.00000  -5.19701   0.00000   0.00000   0.00000
   7        3PX         0.00000   0.00000   1.48443   0.00000   0.00000
   8        3PY        -1.70553   0.00000   0.00000   1.48443   0.00000
   9        3PZ         0.00000  -3.69564   0.00000   0.00000   0.00000
  10        4S          0.00000   0.89392   0.00000   0.00000   0.00000
  11        4PX         0.00000   0.00000  -0.86658   0.00000  -0.00000
  12        4PY         0.22272   0.00000   0.00000  -0.86658   0.00000
  13        4PZ         0.00000   1.03897   0.00000   0.00000   0.00000
  14        5S          0.00000  -0.12767   0.00000   0.00000   0.00000
  15        5PX         0.00000   0.00000   0.24348   0.00000   0.00000
  16        5PY        -0.04365   0.00000   0.00000   0.24348   0.00000
  17        5PZ         0.00000  -0.22031   0.00000   0.00000   0.00000
  18        6D 0        0.00000  -0.07526   0.00000   0.00000   0.00000
  19        6D+1        0.00000   0.00000   0.05812   0.00000   0.00000
  20        6D-1        0.02490   0.00000   0.00000   0.05812   0.00000
  21        6D+2        0.00000  -0.00000   0.00000   0.00000   0.00000
  22        6D-2        0.00000   0.00000   0.00000   0.00000   0.00000
  23        7D 0        0.00000  -0.82702   0.00000   0.00000   0.00000
  24        7D+1        0.00000   0.00000   0.14308   0.00000   0.00000
  25        7D-1       -1.33698   0.00000   0.00000   0.14308   0.00000
  26        7D+2        0.00000   0.00000   0.00000   0.00000   0.00000
  27        7D-2        0.00000   0.00000   0.00000   0.00000   0.00000
  28        8F 0        0.00000  -0.59000   0.00000   0.00000   0.00000
  29        8F+1        0.00000   0.00000   0.27557   0.00000   0.00000
  30        8F-1       -0.13149   0.00000   0.00000   0.27557   0.00000
  31        8F+2        0.00000  -0.00000   0.00000   0.00000   0.00000
  32        8F-2        0.00000   0.00000   0.00000   0.00000   0.00000
  33        8F+3        0.00000   0.00000  -0.00000   0.00000   0.99999
  34        8F-3       -0.00000   0.00000   0.00000   0.00000   0.00000
  35 2   F  1S          0.00000   0.02705   0.00000   0.00000   0.00000
  36        2S          0.00000   0.04443   0.00000   0.00000   0.00000
  37        2PX         0.00000   0.00000   0.00799   0.00000  -0.00000
  38        2PY        -0.08556   0.00000   0.00000   0.00799   0.00000
  39        2PZ         0.00000   0.10130   0.00000   0.00000   0.00000
  40        3S          0.00000  -0.09161   0.00000   0.00000   0.00000
  41        3PX         0.00000   0.00000   0.04106   0.00000  -0.00000
  42        3PY        -0.05398   0.00000   0.00000   0.04106   0.00000
  43        3PZ         0.00000   0.11091   0.00000   0.00000   0.00000
  44        4S          0.00000  -0.77040   0.00000   0.00000   0.00000
  45        4PX         0.00000   0.00000  -0.15143   0.00000  -0.00000
  46        4PY        -0.51013   0.00000   0.00000  -0.15143   0.00000
  47        4PZ         0.00000   0.41423   0.00000   0.00000   0.00000
  48        5S          0.00000   6.17199   0.00000   0.00000   0.00000
  49        5PX         0.00000   0.00000  -0.11313   0.00000  -0.00000
  50        5PY         2.72597   0.00000   0.00000  -0.11313   0.00000
  51        5PZ         0.00000  -2.13336   0.00000   0.00000   0.00000
  52        6D 0        0.00000  -0.00058   0.00000   0.00000   0.00000
  53        6D+1        0.00000   0.00000   0.00012   0.00000  -0.00000
  54        6D-1        0.00428   0.00000   0.00000   0.00012   0.00000
  55        6D+2        0.00000  -0.00000   0.00000   0.00000   0.00000
  56        6D-2        0.00000   0.00000   0.00000   0.00000   0.00000
  57        7D 0        0.00000  -0.00525   0.00000   0.00000   0.00000
  58        7D+1        0.00000   0.00000   0.02969   0.00000   0.00000
  59        7D-1        0.00046   0.00000   0.00000   0.02969   0.00000
  60        7D+2        0.00000  -0.00000   0.00000   0.00000   0.00000
  61        7D-2        0.00000   0.00000   0.00000   0.00000   0.00000
  62        8F 0        0.00000   0.00053   0.00000   0.00000   0.00000
  63        8F+1        0.00000   0.00000  -0.00199   0.00000   0.00000
  64        8F-1       -0.00060   0.00000   0.00000  -0.00199   0.00000
  65        8F+2        0.00000  -0.00000   0.00000   0.00000   0.00000
  66        8F-2        0.00000   0.00000   0.00000   0.00000   0.00000
  67        8F+3        0.00000   0.00000   0.00000   0.00000   0.00032
  68        8F-3       -0.00000   0.00000   0.00000  -0.00000   0.00000
                          31        32        33        34        35
                           V         V         V         V         V
     Eigenvalues --     0.62076   0.62711   0.62711   0.73071   0.78610
   1 1   Li 1S          0.00000  -0.00000   0.00000  -0.06280   0.00000
   2        2S          0.00000  -0.00000   0.00000  -0.21172   0.00000
   3        2PX         0.00000   0.00000   0.00000   0.00000  -0.34886
   4        2PY         0.00000   0.00000   0.00000   0.00000   0.00000
   5        2PZ         0.00000  -0.00000   0.00000  -0.72078   0.00000
   6        3S          0.00000  -0.00000   0.00000  -4.30124   0.00000
   7        3PX         0.00000   0.00000   0.00000   0.00000  -1.32686
   8        3PY        -0.00000   0.00000   0.00000   0.00000   0.00000
   9        3PZ         0.00000  -0.00000   0.00000  -1.07481   0.00000
  10        4S          0.00000   0.00000   0.00000   1.42323   0.00000
  11        4PX         0.00000   0.00000   0.00000   0.00000   0.18649
  12        4PY         0.00000   0.00000   0.00000   0.00000   0.00000
  13        4PZ         0.00000   0.00000   0.00000   0.24186   0.00000
  14        5S          0.00000  -0.00000   0.00000  -0.30611   0.00000
  15        5PX         0.00000   0.00000   0.00000   0.00000  -0.03494
  16        5PY        -0.00000   0.00000   0.00000   0.00000   0.00000
  17        5PZ         0.00000   0.00000   0.00000  -0.02889   0.00000
  18        6D 0        0.00000   0.00000   0.00000   0.03796   0.00000
  19        6D+1        0.00000   0.00000   0.00000   0.00000   0.03563
  20        6D-1       -0.00000   0.00000   0.00000   0.00000   0.00000
  21        6D+2        0.00000  -0.01048   0.00000   0.00000   0.00000
  22        6D-2        0.00000   0.00000  -0.01048   0.00000   0.00000
  23        7D 0        0.00000   0.00000   0.00000   0.41986   0.00000
  24        7D+1        0.00000   0.00000   0.00000   0.00000  -1.58663
  25        7D-1       -0.00000   0.00000   0.00000   0.00000   0.00000
  26        7D+2        0.00000   0.10386   0.00000  -0.00000   0.00000
  27        7D-2        0.00000   0.00000   0.10386   0.00000   0.00000
  28        8F 0        0.00000   0.00000   0.00000   1.18552   0.00000
  29        8F+1        0.00000   0.00000   0.00000   0.00000  -1.58820
  30        8F-1       -0.00000   0.00000   0.00000   0.00000   0.00000
  31        8F+2        0.00000   0.99424   0.00000  -0.00000   0.00000
  32        8F-2        0.00000   0.00000   0.99424   0.00000   0.00000
  33        8F+3        0.00000   0.00000   0.00000   0.00000   0.00000
  34        8F-3        0.99999   0.00000   0.00000   0.00000   0.00000
  35 2   F  1S          0.00000   0.00000   0.00000   0.01744   0.00000
  36        2S          0.00000  -0.00000   0.00000   0.02407   0.00000
  37        2PX         0.00000   0.00000   0.00000   0.00000   0.05884
  38        2PY        -0.00000   0.00000   0.00000   0.00000   0.00000
  39        2PZ         0.00000   0.00000   0.00000  -0.02844   0.00000
  40        3S          0.00000   0.00000   0.00000   0.07238   0.00000
  41        3PX         0.00000   0.00000   0.00000   0.00000   0.02383
  42        3PY        -0.00000   0.00000   0.00000   0.00000   0.00000
  43        3PZ         0.00000  -0.00000   0.00000  -0.03350   0.00000
  44        4S          0.00000  -0.00000   0.00000  -2.24037   0.00000
  45        4PX         0.00000   0.00000   0.00000   0.00000   0.64779
  46        4PY         0.00000   0.00000   0.00000   0.00000   0.00000
  47        4PZ         0.00000   0.00000   0.00000   0.11518   0.00000
  48        5S          0.00000   0.00000   0.00000   4.74504   0.00000
  49        5PX         0.00000   0.00000   0.00000   0.00000   1.83424
  50        5PY         0.00000   0.00000   0.00000   0.00000   0.00000
  51        5PZ         0.00000  -0.00000   0.00000  -2.36006   0.00000
  52        6D 0        0.00000   0.00000   0.00000  -0.00549   0.00000
  53        6D+1        0.00000   0.00000   0.00000   0.00000   0.00960
  54        6D-1        0.00000   0.00000   0.00000   0.00000   0.00000
  55        6D+2        0.00000   0.00681   0.00000  -0.00000   0.00000
  56        6D-2        0.00000   0.00000   0.00681   0.00000   0.00000
  57        7D 0        0.00000  -0.00000   0.00000  -0.00465   0.00000
  58        7D+1        0.00000   0.00000   0.00000   0.00000  -0.02096
  59        7D-1       -0.00000   0.00000   0.00000   0.00000   0.00000
  60        7D+2        0.00000   0.00307   0.00000   0.00000   0.00000
  61        7D-2        0.00000   0.00000   0.00307   0.00000   0.00000
  62        8F 0        0.00000   0.00000   0.00000   0.00087   0.00000
  63        8F+1        0.00000   0.00000   0.00000   0.00000   0.00054
  64        8F-1        0.00000   0.00000   0.00000   0.00000   0.00000
  65        8F+2        0.00000   0.00061   0.00000  -0.00000   0.00000
  66        8F-2        0.00000   0.00000   0.00061   0.00000   0.00000
  67        8F+3        0.00000   0.00000   0.00000   0.00000   0.00000
  68        8F-3        0.00032   0.00000   0.00000   0.00000   0.00000
                          36        37        38        39        40
                           V         V         V         V         V
     Eigenvalues --     0.78610   0.90979   1.32380   1.32380   1.34987
   1 1   Li 1S          0.00000  -0.03517   0.00000   0.00000   0.00000
   2        2S          0.00000   0.10790   0.00000  -0.00000   0.00000
   3        2PX         0.00000   0.00000   0.00000   0.00000   0.00926
   4        2PY        -0.34886   0.00000   0.00000   0.00000   0.00000
   5        2PZ         0.00000  -1.70037   0.00000   0.00000   0.00000
   6        3S          0.00000  -6.42845   0.00000   0.00000   0.00000
   7        3PX         0.00000   0.00000   0.00000   0.00000  -0.36415
   8        3PY        -1.32686   0.00000   0.00000   0.00000   0.00000
   9        3PZ         0.00000  -4.22988   0.00000   0.00000   0.00000
  10        4S          0.00000   1.02245   0.00000  -0.00000   0.00000
  11        4PX         0.00000   0.00000   0.00000   0.00000   0.06389
  12        4PY         0.18649   0.00000   0.00000   0.00000   0.00000
  13        4PZ         0.00000   0.63440   0.00000  -0.00000   0.00000
  14        5S          0.00000  -0.21747   0.00000   0.00000   0.00000
  15        5PX         0.00000   0.00000   0.00000   0.00000  -0.01394
  16        5PY        -0.03494   0.00000   0.00000   0.00000   0.00000
  17        5PZ         0.00000  -0.11896   0.00000   0.00000   0.00000
  18        6D 0        0.00000   0.13483   0.00000   0.00000   0.00000
  19        6D+1        0.00000   0.00000   0.00000   0.00000   1.06897
  20        6D-1        0.03563   0.00000   0.00000   0.00000   0.00000
  21        6D+2        0.00000   0.00000   0.00000   1.12093   0.00000
  22        6D-2        0.00000   0.00000   1.12093   0.00000   0.00000
  23        7D 0        0.00000  -2.56707   0.00000   0.00000   0.00000
  24        7D+1        0.00000   0.00000   0.00000   0.00000  -0.73461
  25        7D-1       -1.58663   0.00000   0.00000   0.00000   0.00000
  26        7D+2        0.00000  -0.00000   0.00000  -0.46362   0.00000
  27        7D-2        0.00000   0.00000  -0.46362   0.00000   0.00000
  28        8F 0        0.00000  -1.13404   0.00000   0.00000   0.00000
  29        8F+1        0.00000   0.00000   0.00000   0.00000  -0.10478
  30        8F-1       -1.58820   0.00000   0.00000   0.00000   0.00000
  31        8F+2        0.00000   0.00000   0.00000  -0.00332   0.00000
  32        8F-2        0.00000   0.00000  -0.00332   0.00000   0.00000
  33        8F+3        0.00000   0.00000   0.00000   0.00000  -0.00000
  34        8F-3       -0.00000   0.00000   0.00000   0.00000   0.00000
  35 2   F  1S          0.00000  -0.01019   0.00000   0.00000   0.00000
  36        2S          0.00000  -0.01643   0.00000   0.00000   0.00000
  37        2PX         0.00000   0.00000   0.00000   0.00000  -0.09690
  38        2PY         0.05884   0.00000   0.00000   0.00000   0.00000
  39        2PZ         0.00000  -0.07454   0.00000   0.00000   0.00000
  40        3S          0.00000   0.02167   0.00000  -0.00000   0.00000
  41        3PX         0.00000   0.00000   0.00000   0.00000  -0.23135
  42        3PY         0.02383   0.00000   0.00000   0.00000   0.00000
  43        3PZ         0.00000  -0.06944   0.00000  -0.00000   0.00000
  44        4S          0.00000   0.74841   0.00000  -0.00000   0.00000
  45        4PX         0.00000   0.00000   0.00000   0.00000   0.16030
  46        4PY         0.64779   0.00000   0.00000   0.00000   0.00000
  47        4PZ         0.00000  -0.55100   0.00000   0.00000   0.00000
  48        5S          0.00000   7.21941   0.00000  -0.00000   0.00000
  49        5PX         0.00000   0.00000   0.00000   0.00000   0.46489
  50        5PY         1.83424   0.00000   0.00000   0.00000   0.00000
  51        5PZ         0.00000  -0.73607   0.00000  -0.00000   0.00000
  52        6D 0        0.00000  -0.00603   0.00000   0.00000   0.00000
  53        6D+1        0.00000   0.00000   0.00000   0.00000  -0.00654
  54        6D-1        0.00960   0.00000   0.00000   0.00000   0.00000
  55        6D+2        0.00000  -0.00000   0.00000  -0.00037   0.00000
  56        6D-2        0.00000   0.00000  -0.00037   0.00000   0.00000
  57        7D 0        0.00000  -0.01456   0.00000  -0.00000   0.00000
  58        7D+1        0.00000   0.00000   0.00000   0.00000  -0.08608
  59        7D-1       -0.02096   0.00000   0.00000   0.00000   0.00000
  60        7D+2        0.00000  -0.00000   0.00000   0.03705   0.00000
  61        7D-2        0.00000   0.00000   0.03705   0.00000   0.00000
  62        8F 0        0.00000   0.00164   0.00000   0.00000   0.00000
  63        8F+1        0.00000   0.00000   0.00000   0.00000  -0.00092
  64        8F-1        0.00054   0.00000   0.00000   0.00000   0.00000
  65        8F+2        0.00000  -0.00000   0.00000  -0.00362   0.00000
  66        8F-2        0.00000   0.00000  -0.00362   0.00000   0.00000
  67        8F+3        0.00000   0.00000   0.00000   0.00000   0.00000
  68        8F-3        0.00000   0.00000   0.00000   0.00000   0.00000
                          41        42        43        44        45
                           V         V         V         V         V
     Eigenvalues --     1.34987   1.52295   1.78072   1.78072   1.81221
   1 1   Li 1S          0.00000   0.11766   0.00000   0.00000   0.10653
   2        2S          0.00000  -0.10687   0.00000   0.00000   0.00336
   3        2PX         0.00000   0.00000  -0.15731   0.00000   0.00000
   4        2PY         0.00926   0.00000   0.00000  -0.15731   0.00000
   5        2PZ         0.00000   0.98835   0.00000   0.00000   0.26673
   6        3S          0.00000  -0.52502   0.00000   0.00000   0.28886
   7        3PX         0.00000   0.00000   0.17680   0.00000   0.00000
   8        3PY        -0.36415   0.00000   0.00000   0.17680   0.00000
   9        3PZ         0.00000  -0.63124   0.00000   0.00000   0.23428
  10        4S          0.00000  -0.04759   0.00000   0.00000   0.11194
  11        4PX         0.00000   0.00000   0.09038   0.00000   0.00000
  12        4PY         0.06389   0.00000   0.00000   0.09038   0.00000
  13        4PZ         0.00000   0.36829   0.00000   0.00000   0.16950
  14        5S          0.00000   0.06872   0.00000   0.00000  -0.00346
  15        5PX         0.00000   0.00000  -0.02660   0.00000   0.00000
  16        5PY        -0.01394   0.00000   0.00000  -0.02660   0.00000
  17        5PZ         0.00000  -0.07972   0.00000   0.00000  -0.04023
  18        6D 0        0.00000   1.34408   0.00000   0.00000  -0.51163
  19        6D+1        0.00000   0.00000  -0.40320   0.00000   0.00000
  20        6D-1        1.06897   0.00000   0.00000  -0.40320   0.00000
  21        6D+2        0.00000  -0.00000   0.00000   0.00000   0.00000
  22        6D-2        0.00000   0.00000   0.00000   0.00000   0.00000
  23        7D 0        0.00000  -0.09245   0.00000   0.00000   0.41175
  24        7D+1        0.00000   0.00000   0.09239   0.00000   0.00000
  25        7D-1       -0.73461   0.00000   0.00000   0.09239   0.00000
  26        7D+2        0.00000   0.00000   0.00000   0.00000  -0.00000
  27        7D-2        0.00000   0.00000   0.00000   0.00000   0.00000
  28        8F 0        0.00000   0.31972   0.00000   0.00000  -0.10734
  29        8F+1        0.00000   0.00000  -0.23853   0.00000   0.00000
  30        8F-1       -0.10478   0.00000   0.00000  -0.23853   0.00000
  31        8F+2        0.00000  -0.00000   0.00000   0.00000  -0.00000
  32        8F-2        0.00000   0.00000   0.00000   0.00000   0.00000
  33        8F+3        0.00000   0.00000   0.00000   0.00000   0.00000
  34        8F-3        0.00000   0.00000   0.00000  -0.00000   0.00000
  35 2   F  1S          0.00000   0.04401   0.00000   0.00000  -0.00480
  36        2S          0.00000   0.07911   0.00000   0.00000  -0.00839
  37        2PX         0.00000   0.00000  -0.23184   0.00000   0.00000
  38        2PY        -0.09690   0.00000   0.00000  -0.23184   0.00000
  39        2PZ         0.00000  -0.03942   0.00000   0.00000  -0.24755
  40        3S          0.00000  -0.28829   0.00000   0.00000   0.01577
  41        3PX         0.00000   0.00000  -0.84855   0.00000   0.00000
  42        3PY        -0.23135   0.00000   0.00000  -0.84855   0.00000
  43        3PZ         0.00000  -0.33099   0.00000   0.00000  -0.82911
  44        4S          0.00000  -1.14339   0.00000   0.00000   0.28011
  45        4PX         0.00000   0.00000   1.88276   0.00000   0.00000
  46        4PY         0.16030   0.00000   0.00000   1.88276   0.00000
  47        4PZ         0.00000   1.84736   0.00000   0.00000   1.47207
  48        5S          0.00000   1.19036   0.00000   0.00000  -0.87847
  49        5PX         0.00000   0.00000  -0.93828   0.00000   0.00000
  50        5PY         0.46489   0.00000   0.00000  -0.93828   0.00000
  51        5PZ         0.00000  -1.38052   0.00000   0.00000  -0.64936
  52        6D 0        0.00000   0.02552   0.00000   0.00000  -0.00318
  53        6D+1        0.00000   0.00000   0.00398   0.00000   0.00000
  54        6D-1       -0.00654   0.00000   0.00000   0.00398   0.00000
  55        6D+2        0.00000  -0.00000   0.00000   0.00000   0.00000
  56        6D-2        0.00000   0.00000   0.00000   0.00000   0.00000
  57        7D 0        0.00000  -0.09666   0.00000   0.00000   0.02380
  58        7D+1        0.00000   0.00000   0.12015   0.00000   0.00000
  59        7D-1       -0.08608   0.00000   0.00000   0.12015   0.00000
  60        7D+2        0.00000  -0.00000   0.00000   0.00000  -0.00000
  61        7D-2        0.00000   0.00000   0.00000   0.00000   0.00000
  62        8F 0        0.00000   0.01232   0.00000   0.00000  -0.00414
  63        8F+1        0.00000   0.00000  -0.00232   0.00000   0.00000
  64        8F-1       -0.00092   0.00000   0.00000  -0.00232   0.00000
  65        8F+2        0.00000   0.00000   0.00000   0.00000  -0.00000
  66        8F-2        0.00000   0.00000   0.00000   0.00000   0.00000
  67        8F+3        0.00000   0.00000  -0.00000   0.00000   0.00000
  68        8F-3       -0.00000   0.00000   0.00000   0.00000   0.00000
                          46        47        48        49        50
                           V         V         V         V         V
     Eigenvalues --     2.43667   2.54036   2.54036   2.64078   2.78061
   1 1   Li 1S         -0.13799   0.00000   0.00000  -0.51609   0.00000
   2        2S          0.03067   0.00000  -0.00000   0.55745   0.00000
   3        2PX         0.00000   0.00000   0.00000   0.00000   0.00000
   4        2PY         0.00000   0.00000   0.00000   0.00000   0.28267
   5        2PZ         0.11291   0.00000   0.00000  -1.02864   0.00000
   6        3S         -2.75133   0.00000   0.00000   0.83168   0.00000
   7        3PX         0.00000   0.00000   0.00000   0.00000   0.00000
   8        3PY         0.00000   0.00000   0.00000   0.00000   0.30231
   9        3PZ        -1.37056   0.00000   0.00000   0.90987   0.00000
  10        4S          0.54033   0.00000  -0.00000   0.24841   0.00000
  11        4PX         0.00000   0.00000   0.00000   0.00000   0.00000
  12        4PY         0.00000   0.00000   0.00000   0.00000  -0.06924
  13        4PZ         0.28339   0.00000   0.00000  -0.30357   0.00000
  14        5S         -0.10477   0.00000   0.00000  -0.11438   0.00000
  15        5PX         0.00000   0.00000   0.00000   0.00000   0.00000
  16        5PY         0.00000   0.00000   0.00000   0.00000   0.01732
  17        5PZ        -0.05354   0.00000  -0.00000   0.06921   0.00000
  18        6D 0        0.32799   0.00000   0.00000  -0.80099   0.00000
  19        6D+1        0.00000   0.00000   0.00000   0.00000   0.00000
  20        6D-1        0.00000   0.00000   0.00000   0.00000   0.47924
  21        6D+2       -0.00000   0.00000  -0.08227  -0.00000   0.00000
  22        6D-2        0.00000  -0.08227   0.00000   0.00000   0.00000
  23        7D 0       -0.09351   0.00000   0.00000  -0.16402   0.00000
  24        7D+1        0.00000   0.00000   0.00000   0.00000   0.00000
  25        7D-1        0.00000   0.00000   0.00000   0.00000   0.27304
  26        7D+2       -0.00000   0.00000  -0.05145  -0.00000   0.00000
  27        7D-2        0.00000  -0.05145   0.00000   0.00000   0.00000
  28        8F 0        0.24725   0.00000   0.00000  -0.43913   0.00000
  29        8F+1        0.00000   0.00000   0.00000   0.00000   0.00000
  30        8F-1        0.00000   0.00000   0.00000   0.00000   0.34942
  31        8F+2       -0.00000   0.00000  -0.19850  -0.00000   0.00000
  32        8F-2        0.00000  -0.19850   0.00000   0.00000   0.00000
  33        8F+3        0.00000   0.00000   0.00000   0.00000   0.00000
  34        8F-3        0.00000   0.00000   0.00000   0.00000   0.00000
  35 2   F  1S         -0.08842   0.00000   0.00000   0.07705   0.00000
  36        2S         -0.18795   0.00000   0.00000   0.16686   0.00000
  37        2PX         0.00000   0.00000   0.00000   0.00000   0.00000
  38        2PY         0.00000   0.00000   0.00000   0.00000   0.04499
  39        2PZ        -0.00209   0.00000  -0.00000   0.00396   0.00000
  40        3S          1.52152   0.00000  -0.00000  -1.45549   0.00000
  41        3PX         0.00000   0.00000   0.00000   0.00000   0.00000
  42        3PY         0.00000   0.00000   0.00000   0.00000   0.12949
  43        3PZ        -0.08165   0.00000  -0.00000   0.09680   0.00000
  44        4S         -3.27220   0.00000  -0.00000   3.63341   0.00000
  45        4PX         0.00000   0.00000   0.00000   0.00000   0.00000
  46        4PY         0.00000   0.00000   0.00000   0.00000  -0.51622
  47        4PZ         0.60002   0.00000   0.00000  -1.14869   0.00000
  48        5S          4.17972   0.00000  -0.00000  -2.81727   0.00000
  49        5PX         0.00000   0.00000   0.00000   0.00000   0.00000
  50        5PY         0.00000   0.00000   0.00000   0.00000  -0.34850
  51        5PZ        -1.49263   0.00000   0.00000   1.28180   0.00000
  52        6D 0        0.00522   0.00000   0.00000  -0.01322   0.00000
  53        6D+1        0.00000   0.00000   0.00000   0.00000   0.00000
  54        6D-1        0.00000   0.00000   0.00000   0.00000   0.00755
  55        6D+2        0.00000   0.00000   0.00182  -0.00000   0.00000
  56        6D-2        0.00000   0.00182   0.00000   0.00000   0.00000
  57        7D 0        0.62340   0.00000  -0.00000   0.83694   0.00000
  58        7D+1        0.00000   0.00000   0.00000   0.00000   0.00000
  59        7D-1        0.00000   0.00000   0.00000   0.00000   1.06995
  60        7D+2        0.00000   0.00000   1.02079   0.00000   0.00000
  61        7D-2        0.00000   1.02079   0.00000   0.00000   0.00000
  62        8F 0       -0.00515   0.00000   0.00000  -0.00971   0.00000
  63        8F+1        0.00000   0.00000   0.00000   0.00000   0.00000
  64        8F-1        0.00000   0.00000   0.00000   0.00000   0.00339
  65        8F+2       -0.00000   0.00000  -0.00216  -0.00000   0.00000
  66        8F-2        0.00000  -0.00216   0.00000   0.00000   0.00000
  67        8F+3        0.00000   0.00000   0.00000   0.00000   0.00000
  68        8F-3        0.00000   0.00000   0.00000   0.00000  -0.00000
                          51        52        53        54        55
                           V         V         V         V         V
     Eigenvalues --     2.78061   4.47754   7.11883   7.11883   7.17803
   1 1   Li 1S          0.00000  -1.57354   0.00000   0.00000   0.06470
   2        2S          0.00000   1.81900   0.00000   0.00000  -0.13697
   3        2PX         0.28267   0.00000   0.05292   0.00000   0.00000
   4        2PY         0.00000   0.00000   0.00000   0.05292   0.00000
   5        2PZ         0.00000   0.68758   0.00000   0.00000  -0.12033
   6        3S          0.00000   0.38859   0.00000   0.00000   0.22572
   7        3PX         0.30231   0.00000  -0.00719   0.00000   0.00000
   8        3PY         0.00000   0.00000   0.00000  -0.00719   0.00000
   9        3PZ         0.00000   0.04296   0.00000   0.00000   0.12257
  10        4S          0.00000  -0.09046   0.00000   0.00000  -0.10863
  11        4PX        -0.06924   0.00000  -0.05417   0.00000   0.00000
  12        4PY         0.00000   0.00000   0.00000  -0.05417   0.00000
  13        4PZ         0.00000   0.02202   0.00000   0.00000  -0.12223
  14        5S          0.00000   0.01770   0.00000   0.00000   0.01262
  15        5PX         0.01732   0.00000   0.01559   0.00000   0.00000
  16        5PY         0.00000   0.00000   0.00000   0.01559   0.00000
  17        5PZ         0.00000  -0.00550   0.00000   0.00000   0.02743
  18        6D 0        0.00000   0.38248   0.00000   0.00000   0.07062
  19        6D+1        0.47924   0.00000   0.05668   0.00000   0.00000
  20        6D-1        0.00000   0.00000   0.00000   0.05668   0.00000
  21        6D+2        0.00000   0.00000   0.00000   0.00000   0.00000
  22        6D-2        0.00000   0.00000   0.00000   0.00000   0.00000
  23        7D 0        0.00000   0.02865   0.00000   0.00000  -0.05696
  24        7D+1        0.27304   0.00000   0.04767   0.00000   0.00000
  25        7D-1        0.00000   0.00000   0.00000   0.04767   0.00000
  26        7D+2        0.00000  -0.00000   0.00000   0.00000   0.00000
  27        7D-2        0.00000   0.00000   0.00000   0.00000   0.00000
  28        8F 0        0.00000   0.00239   0.00000   0.00000   0.04965
  29        8F+1        0.34942   0.00000   0.10613   0.00000   0.00000
  30        8F-1        0.00000   0.00000   0.00000   0.10613   0.00000
  31        8F+2        0.00000   0.00000   0.00000   0.00000   0.00000
  32        8F-2        0.00000   0.00000   0.00000   0.00000   0.00000
  33        8F+3       -0.00000   0.00000   0.00000   0.00000   0.00000
  34        8F-3        0.00000   0.00000   0.00000  -0.00000   0.00000
  35 2   F  1S          0.00000  -0.01718   0.00000   0.00000   0.00231
  36        2S          0.00000  -0.03606   0.00000   0.00000   0.00464
  37        2PX         0.04499   0.00000  -1.25260   0.00000   0.00000
  38        2PY         0.00000   0.00000   0.00000  -1.25260   0.00000
  39        2PZ         0.00000  -0.06727   0.00000   0.00000  -1.23544
  40        3S          0.00000   0.35089   0.00000   0.00000  -0.04385
  41        3PX         0.12949   0.00000   1.48681   0.00000   0.00000
  42        3PY         0.00000   0.00000   0.00000   1.48681   0.00000
  43        3PZ         0.00000  -0.11838   0.00000   0.00000   1.49218
  44        4S          0.00000  -0.74197   0.00000   0.00000   0.05538
  45        4PX        -0.51622   0.00000  -0.93410   0.00000   0.00000
  46        4PY         0.00000   0.00000   0.00000  -0.93410   0.00000
  47        4PZ         0.00000   0.79039   0.00000   0.00000  -0.93545
  48        5S          0.00000  -0.27899   0.00000   0.00000  -0.07737
  49        5PX        -0.34850   0.00000   0.31204   0.00000   0.00000
  50        5PY         0.00000   0.00000   0.00000   0.31204   0.00000
  51        5PZ         0.00000  -0.03924   0.00000   0.00000   0.43238
  52        6D 0        0.00000  -0.05071   0.00000   0.00000   0.01853
  53        6D+1        0.00755   0.00000   0.01984   0.00000   0.00000
  54        6D-1        0.00000   0.00000   0.00000   0.01984   0.00000
  55        6D+2        0.00000   0.00000   0.00000   0.00000   0.00000
  56        6D-2        0.00000   0.00000   0.00000   0.00000   0.00000
  57        7D 0        0.00000  -0.44310   0.00000   0.00000   0.01455
  58        7D+1        1.06995   0.00000   0.02913   0.00000   0.00000
  59        7D-1        0.00000   0.00000   0.00000   0.02913   0.00000
  60        7D+2        0.00000  -0.00000   0.00000   0.00000  -0.00000
  61        7D-2        0.00000   0.00000   0.00000   0.00000   0.00000
  62        8F 0        0.00000  -0.07334   0.00000   0.00000   0.24836
  63        8F+1        0.00339   0.00000   0.17205   0.00000   0.00000
  64        8F-1        0.00000   0.00000   0.00000   0.17205   0.00000
  65        8F+2        0.00000   0.00000   0.00000   0.00000   0.00000
  66        8F-2        0.00000   0.00000   0.00000   0.00000   0.00000
  67        8F+3        0.00000   0.00000  -0.00000   0.00000   0.00000
  68        8F-3        0.00000   0.00000   0.00000   0.00000   0.00000
                          56        57        58        59        60
                           V         V         V         V         V
     Eigenvalues --     7.31412   7.31412   7.31464   7.31464   7.36251
   1 1   Li 1S          0.00000   0.00000   0.00000   0.00000   0.00000
   2        2S         -0.00000   0.00000   0.00000   0.00000   0.00000
   3        2PX         0.00000   0.00000   0.00000  -0.00000   0.00000
   4        2PY         0.00000   0.00000   0.00000   0.00000  -0.06446
   5        2PZ        -0.00000   0.00000   0.00000   0.00000   0.00000
   6        3S         -0.00000   0.00000   0.00000   0.00000   0.00000
   7        3PX         0.00000   0.00000   0.00000   0.00000   0.00000
   8        3PY         0.00000   0.00000  -0.00000   0.00000   0.08590
   9        3PZ        -0.00000   0.00000   0.00000   0.00000   0.00000
  10        4S          0.00000   0.00000   0.00000   0.00000   0.00000
  11        4PX         0.00000   0.00000   0.00000  -0.00000   0.00000
  12        4PY         0.00000   0.00000   0.00000   0.00000  -0.01620
  13        4PZ         0.00000   0.00000   0.00000   0.00000   0.00000
  14        5S         -0.00000   0.00000   0.00000   0.00000   0.00000
  15        5PX         0.00000   0.00000   0.00000   0.00000   0.00000
  16        5PY         0.00000   0.00000  -0.00000   0.00000   0.00425
  17        5PZ        -0.00000   0.00000   0.00000   0.00000   0.00000
  18        6D 0       -0.00000   0.00000   0.00000   0.00000   0.00000
  19        6D+1        0.00000   0.00000   0.00000  -0.00000   0.00000
  20        6D-1        0.00000   0.00000   0.00000   0.00000  -0.12929
  21        6D+2        0.03739   0.00000   0.00000   0.00000   0.00000
  22        6D-2        0.00000   0.03739   0.00000   0.00000   0.00000
  23        7D 0       -0.00000   0.00000   0.00000   0.00000   0.00000
  24        7D+1        0.00000   0.00000   0.00000   0.00000   0.00000
  25        7D-1        0.00000   0.00000  -0.00000   0.00000   0.07319
  26        7D+2       -0.00610   0.00000   0.00000   0.00000   0.00000
  27        7D-2        0.00000  -0.00610   0.00000   0.00000   0.00000
  28        8F 0       -0.00000   0.00000   0.00000   0.00000   0.00000
  29        8F+1        0.00000   0.00000   0.00000   0.00000   0.00000
  30        8F-1        0.00000   0.00000  -0.00000   0.00000  -0.00978
  31        8F+2        0.02349   0.00000   0.00000   0.00000   0.00000
  32        8F-2        0.00000   0.02349   0.00000   0.00000   0.00000
  33        8F+3        0.00000   0.00000   0.00000  -0.01681   0.00000
  34        8F-3        0.00000   0.00000  -0.01681   0.00000  -0.00000
  35 2   F  1S          0.00000   0.00000   0.00000   0.00000   0.00000
  36        2S          0.00000   0.00000   0.00000   0.00000   0.00000
  37        2PX         0.00000   0.00000   0.00000   0.00000   0.00000
  38        2PY         0.00000   0.00000   0.00000   0.00000   0.22200
  39        2PZ        -0.00000   0.00000   0.00000   0.00000   0.00000
  40        3S         -0.00000   0.00000   0.00000   0.00000   0.00000
  41        3PX         0.00000   0.00000   0.00000  -0.00000   0.00000
  42        3PY         0.00000   0.00000  -0.00000   0.00000  -0.28332
  43        3PZ         0.00000   0.00000   0.00000   0.00000   0.00000
  44        4S          0.00000   0.00000   0.00000   0.00000   0.00000
  45        4PX         0.00000   0.00000   0.00000   0.00000   0.00000
  46        4PY         0.00000   0.00000   0.00000   0.00000   0.23057
  47        4PZ        -0.00000   0.00000   0.00000   0.00000   0.00000
  48        5S          0.00000   0.00000   0.00000   0.00000   0.00000
  49        5PX         0.00000   0.00000   0.00000  -0.00000   0.00000
  50        5PY         0.00000   0.00000   0.00000   0.00000  -0.14449
  51        5PZ         0.00000   0.00000   0.00000   0.00000   0.00000
  52        6D 0        0.00000   0.00000   0.00000   0.00000   0.00000
  53        6D+1        0.00000   0.00000   0.00000  -0.00000   0.00000
  54        6D-1        0.00000   0.00000   0.00000   0.00000  -0.03221
  55        6D+2       -0.00779   0.00000   0.00000   0.00000   0.00000
  56        6D-2        0.00000  -0.00779   0.00000   0.00000   0.00000
  57        7D 0        0.00000   0.00000   0.00000   0.00000   0.00000
  58        7D+1        0.00000   0.00000   0.00000  -0.00000   0.00000
  59        7D-1        0.00000   0.00000   0.00000   0.00000  -0.02561
  60        7D+2       -0.00064   0.00000   0.00000   0.00000   0.00000
  61        7D-2        0.00000  -0.00064   0.00000   0.00000   0.00000
  62        8F 0       -0.00000   0.00000   0.00000   0.00000   0.00000
  63        8F+1        0.00000   0.00000   0.00000   0.00000   0.00000
  64        8F-1        0.00000   0.00000  -0.00000   0.00000   0.98978
  65        8F+2        1.00075   0.00000   0.00000   0.00000   0.00000
  66        8F-2        0.00000   1.00075   0.00000   0.00000   0.00000
  67        8F+3        0.00000   0.00000   0.00000   1.00014   0.00000
  68        8F-3        0.00000   0.00000   1.00014   0.00000   0.00000
                          61        62        63        64        65
                           V         V         V         V         V
     Eigenvalues --     7.36251   7.39025   9.89621   9.89621  10.01958
   1 1   Li 1S          0.00000  -0.19403  -0.00000   0.00000   0.00000
   2        2S          0.00000   0.25130   0.00000   0.00000   0.00000
   3        2PX        -0.06446   0.00000   0.00000   0.00000  -0.09765
   4        2PY         0.00000   0.00000   0.00000   0.00000   0.00000
   5        2PZ         0.00000   0.28108   0.00000   0.00000   0.00000
   6        3S          0.00000   0.20398   0.00000   0.00000   0.00000
   7        3PX         0.08590   0.00000   0.00000   0.00000  -0.13759
   8        3PY         0.00000   0.00000   0.00000   0.00000   0.00000
   9        3PZ         0.00000   0.11637  -0.00000   0.00000   0.00000
  10        4S          0.00000  -0.02867  -0.00000   0.00000   0.00000
  11        4PX        -0.01620   0.00000   0.00000   0.00000   0.03041
  12        4PY         0.00000   0.00000   0.00000   0.00000   0.00000
  13        4PZ         0.00000   0.02698   0.00000   0.00000   0.00000
  14        5S          0.00000   0.01336   0.00000   0.00000   0.00000
  15        5PX         0.00425   0.00000   0.00000   0.00000  -0.00773
  16        5PY         0.00000   0.00000   0.00000   0.00000   0.00000
  17        5PZ         0.00000  -0.00645  -0.00000   0.00000   0.00000
  18        6D 0        0.00000   0.14123   0.00000   0.00000   0.00000
  19        6D+1       -0.12929   0.00000   0.00000   0.00000  -0.13308
  20        6D-1        0.00000   0.00000   0.00000   0.00000   0.00000
  21        6D+2        0.00000   0.00000   0.01809   0.00000   0.00000
  22        6D-2        0.00000   0.00000   0.00000   0.01809   0.00000
  23        7D 0        0.00000   0.14296  -0.00000   0.00000   0.00000
  24        7D+1        0.07319   0.00000   0.00000   0.00000  -0.12957
  25        7D-1        0.00000   0.00000   0.00000   0.00000   0.00000
  26        7D+2        0.00000  -0.00000   0.02264   0.00000   0.00000
  27        7D-2        0.00000   0.00000   0.00000   0.02264   0.00000
  28        8F 0        0.00000   0.08439   0.00000   0.00000   0.00000
  29        8F+1       -0.00978   0.00000   0.00000   0.00000  -0.12681
  30        8F-1        0.00000   0.00000   0.00000   0.00000   0.00000
  31        8F+2        0.00000   0.00000   0.06777   0.00000   0.00000
  32        8F-2        0.00000   0.00000   0.00000   0.06777   0.00000
  33        8F+3        0.00000   0.00000   0.00000   0.00000   0.00000
  34        8F-3        0.00000   0.00000   0.00000   0.00000   0.00000
  35 2   F  1S          0.00000  -0.00565   0.00000   0.00000   0.00000
  36        2S          0.00000  -0.01081  -0.00000   0.00000   0.00000
  37        2PX         0.22200   0.00000   0.00000   0.00000   0.03992
  38        2PY         0.00000   0.00000   0.00000   0.00000   0.00000
  39        2PZ         0.00000   0.31393   0.00000   0.00000   0.00000
  40        3S          0.00000   0.12639   0.00000   0.00000   0.00000
  41        3PX        -0.28332   0.00000   0.00000   0.00000  -0.07555
  42        3PY         0.00000   0.00000   0.00000   0.00000   0.00000
  43        3PZ         0.00000  -0.41867  -0.00000   0.00000   0.00000
  44        4S          0.00000  -0.40040  -0.00000   0.00000   0.00000
  45        4PX         0.23057   0.00000   0.00000   0.00000   0.15681
  46        4PY         0.00000   0.00000   0.00000   0.00000   0.00000
  47        4PZ         0.00000   0.50722   0.00000   0.00000   0.00000
  48        5S          0.00000  -0.14975  -0.00000   0.00000   0.00000
  49        5PX        -0.14449   0.00000   0.00000   0.00000   0.17187
  50        5PY         0.00000   0.00000   0.00000   0.00000   0.00000
  51        5PZ         0.00000  -0.21555  -0.00000   0.00000   0.00000
  52        6D 0        0.00000  -0.05699   0.00000   0.00000   0.00000
  53        6D+1       -0.03221   0.00000   0.00000   0.00000   1.13701
  54        6D-1        0.00000   0.00000   0.00000   0.00000   0.00000
  55        6D+2        0.00000  -0.00000   1.12840   0.00000   0.00000
  56        6D-2        0.00000   0.00000   0.00000   1.12840   0.00000
  57        7D 0        0.00000  -0.05861  -0.00000   0.00000   0.00000
  58        7D+1       -0.02561   0.00000   0.00000   0.00000  -0.59489
  59        7D-1        0.00000   0.00000   0.00000   0.00000   0.00000
  60        7D+2        0.00000  -0.00000  -0.53540   0.00000   0.00000
  61        7D-2        0.00000   0.00000   0.00000  -0.53540   0.00000
  62        8F 0        0.00000   0.97066   0.00000   0.00000   0.00000
  63        8F+1        0.98978   0.00000   0.00000   0.00000   0.03636
  64        8F-1        0.00000   0.00000   0.00000   0.00000   0.00000
  65        8F+2        0.00000   0.00000   0.00943   0.00000   0.00000
  66        8F-2        0.00000   0.00000   0.00000   0.00943   0.00000
  67        8F+3       -0.00000   0.00000   0.00000   0.00000   0.00000
  68        8F-3        0.00000   0.00000   0.00000   0.00000   0.00000
                          66        67        68
                           V         V         V
     Eigenvalues --    10.01958  10.09080  68.98481
   1 1   Li 1S          0.00000  -0.19033   0.00621
   2        2S          0.00000   0.27066  -0.00237
   3        2PX         0.00000   0.00000   0.00000
   4        2PY        -0.09765   0.00000   0.00000
   5        2PZ         0.00000   0.37617  -0.05966
   6        3S          0.00000   0.46129   0.21639
   7        3PX         0.00000   0.00000   0.00000
   8        3PY        -0.13759   0.00000   0.00000
   9        3PZ         0.00000   0.07325   0.13172
  10        4S          0.00000  -0.19588  -0.02476
  11        4PX         0.00000   0.00000   0.00000
  12        4PY         0.03041   0.00000   0.00000
  13        4PZ         0.00000   0.02369  -0.03320
  14        5S          0.00000   0.05563   0.00205
  15        5PX         0.00000   0.00000   0.00000
  16        5PY        -0.00773   0.00000   0.00000
  17        5PZ         0.00000  -0.00794   0.00705
  18        6D 0        0.00000   0.19199  -0.05136
  19        6D+1        0.00000   0.00000   0.00000
  20        6D-1       -0.13308   0.00000   0.00000
  21        6D+2        0.00000  -0.00000  -0.00000
  22        6D-2        0.00000   0.00000   0.00000
  23        7D 0        0.00000   0.06704  -0.00592
  24        7D+1        0.00000   0.00000   0.00000
  25        7D-1       -0.12957   0.00000   0.00000
  26        7D+2        0.00000  -0.00000   0.00000
  27        7D-2        0.00000   0.00000   0.00000
  28        8F 0        0.00000   0.04812  -0.03751
  29        8F+1        0.00000   0.00000   0.00000
  30        8F-1       -0.12681   0.00000   0.00000
  31        8F+2        0.00000  -0.00000   0.00000
  32        8F-2        0.00000   0.00000   0.00000
  33        8F+3        0.00000   0.00000   0.00000
  34        8F-3       -0.00000   0.00000   0.00000
  35 2   F  1S          0.00000  -0.00540  -2.32672
  36        2S          0.00000  -0.00897   2.39976
  37        2PX         0.00000   0.00000   0.00000
  38        2PY         0.03992   0.00000   0.00000
  39        2PZ         0.00000   0.04539  -0.00348
  40        3S          0.00000   0.11708  -0.25234
  41        3PX         0.00000   0.00000   0.00000
  42        3PY        -0.07555   0.00000   0.00000
  43        3PZ         0.00000  -0.10174   0.01490
  44        4S          0.00000  -0.35071   0.41964
  45        4PX         0.00000   0.00000   0.00000
  46        4PY         0.15681   0.00000   0.00000
  47        4PZ         0.00000   0.36447  -0.09458
  48        5S          0.00000  -0.26390  -0.40264
  49        5PX         0.00000   0.00000   0.00000
  50        5PY         0.17187   0.00000   0.00000
  51        5PZ         0.00000  -0.01621   0.15342
  52        6D 0        0.00000   1.13953  -0.00523
  53        6D+1        0.00000   0.00000   0.00000
  54        6D-1        1.13701   0.00000   0.00000
[...]
  64        8F-1        0.00000   0.00000   0.00000   0.00000   0.00000
  65        8F+2        0.00000   0.00000   0.00000   0.00000   0.00000
  66        8F-2        0.00000   0.00000   0.00000   0.00000   0.00000
  67        8F+3        0.00000   0.00000   0.00000   0.00000   0.00000
  68        8F-3        0.00000   0.00000   0.00000   0.00000   0.00000
                          61        62        63        64        65
  61        7D-2        0.00000
  62        8F 0        0.00000   0.00000
  63        8F+1        0.00000   0.00000   0.00000
  64        8F-1        0.00000   0.00000   0.00000   0.00000
  65        8F+2        0.00000   0.00000   0.00000   0.00000   0.00000
  66        8F-2        0.00000   0.00000   0.00000   0.00000   0.00000
  67        8F+3        0.00000   0.00000   0.00000   0.00000   0.00000
  68        8F-3        0.00000   0.00000   0.00000   0.00000   0.00000
                          66        67        68
  66        8F-2        0.00000
  67        8F+3        0.00000   0.00000
  68        8F-3        0.00000   0.00000   0.00000
     Bonding Gross orbital populations:
                         Total     Alpha     Beta      Spin
   1 1   Li 1S         -0.00041  -0.00020  -0.00020   0.00000
   2        2S         -0.00977  -0.00489  -0.00489   0.00000
   3        2PX         0.01681   0.00840   0.00840   0.00000
   4        2PY         0.01681   0.00840   0.00840   0.00000
   5        2PZ         0.05882   0.02941   0.02941   0.00000
   6        3S          0.05969   0.02985   0.02985   0.00000
   7        3PX         0.01806   0.00903   0.00903   0.00000
   8        3PY         0.01806   0.00903   0.00903   0.00000
   9        3PZ         0.02211   0.01106   0.01106   0.00000
  10        4S         -0.00440  -0.00220  -0.00220   0.00000
  11        4PX        -0.00089  -0.00045  -0.00045   0.00000
  12        4PY        -0.00089  -0.00045  -0.00045   0.00000
  13        4PZ         0.00059   0.00030   0.00030   0.00000
  14        5S         -0.00007  -0.00004  -0.00004   0.00000
  15        5PX         0.00009   0.00004   0.00004   0.00000
  16        5PY         0.00009   0.00004   0.00004   0.00000
  17        5PZ        -0.00010  -0.00005  -0.00005   0.00000
  18        6D 0        0.00962   0.00481   0.00481   0.00000
  19        6D+1        0.00624   0.00312   0.00312   0.00000
  20        6D-1        0.00624   0.00312   0.00312   0.00000
  21        6D+2        0.00000   0.00000   0.00000   0.00000
  22        6D-2        0.00000   0.00000   0.00000   0.00000
  23        7D 0        0.00214   0.00107   0.00107   0.00000
  24        7D+1        0.01717   0.00859   0.00859   0.00000
  25        7D-1        0.01717   0.00859   0.00859   0.00000
  26        7D+2       -0.00000  -0.00000  -0.00000   0.00000
  27        7D-2        0.00000   0.00000   0.00000   0.00000
  28        8F 0       -0.00508  -0.00254  -0.00254   0.00000
  29        8F+1        0.00405   0.00202   0.00202   0.00000
  30        8F-1        0.00405   0.00202   0.00202   0.00000
  31        8F+2       -0.00000  -0.00000  -0.00000   0.00000
  32        8F-2       -0.00000  -0.00000  -0.00000   0.00000
  33        8F+3       -0.00000  -0.00000  -0.00000   0.00000
  34        8F-3       -0.00000  -0.00000  -0.00000   0.00000
  35 2   F  1S         -0.00125  -0.00062  -0.00062   0.00000
  36        2S         -0.00211  -0.00105  -0.00105   0.00000
  37        2PX         0.00198   0.00099   0.00099   0.00000
  38        2PY         0.00198   0.00099   0.00099   0.00000
  39        2PZ         0.00495   0.00247   0.00247   0.00000
  40        3S          0.03412   0.01706   0.01706   0.00000
  41        3PX         0.01293   0.00647   0.00647   0.00000
  42        3PY         0.01293   0.00647   0.00647   0.00000
  43        3PZ         0.02712   0.01356   0.01356   0.00000
  44        4S          0.05730   0.02865   0.02865   0.00000
  45        4PX         0.03800   0.01900   0.01900   0.00000
  46        4PY         0.03800   0.01900   0.01900   0.00000
  47        4PZ         0.03817   0.01908   0.01908   0.00000
  48        5S         -0.02767  -0.01383  -0.01383   0.00000
  49        5PX         0.00829   0.00414   0.00414   0.00000
  50        5PY         0.00829   0.00414   0.00414   0.00000
  51        5PZ         0.00195   0.00097   0.00097   0.00000
  52        6D 0        0.00001   0.00000   0.00000   0.00000
  53        6D+1        0.00000   0.00000   0.00000   0.00000
  54        6D-1        0.00000   0.00000   0.00000   0.00000
  55        6D+2       -0.00000  -0.00000  -0.00000   0.00000
  56        6D-2        0.00000   0.00000   0.00000   0.00000
  57        7D 0        0.00055   0.00028   0.00028   0.00000
  58        7D+1        0.00032   0.00016   0.00016   0.00000
  59        7D-1        0.00032   0.00016   0.00016   0.00000
  60        7D+2       -0.00000  -0.00000  -0.00000   0.00000
  61        7D-2       -0.00000  -0.00000  -0.00000   0.00000
  62        8F 0        0.00001   0.00001   0.00001   0.00000
  63        8F+1        0.00001   0.00000   0.00000   0.00000
  64        8F-1        0.00001   0.00000   0.00000   0.00000
  65        8F+2       -0.00000  -0.00000  -0.00000   0.00000
  66        8F-2        0.00000   0.00000   0.00000   0.00000
  67        8F+3       -0.00000  -0.00000  -0.00000   0.00000
  68        8F-3       -0.00000  -0.00000  -0.00000   0.00000
          Bonding Condensed to atoms (all electrons):
               1          2
     1  Li   0.000000   0.256209
     2  F    0.256209   0.000000
          Bonding Atomic-Atomic Spin Densities.
               1          2
     1  Li   0.000000   0.000000
     2  F    0.000000   0.000000
 Bonding Mulliken charges and spin densities:
               1          2
     1  Li   2.743791   0.000000
     2  F    8.743791   0.000000
 Sum of Bonding Mulliken charges =  11.48758   0.00000
 Bonding Mulliken charges and spin densities with hydrogens summed into heavy atoms:
               1          2
     1  Li   2.743791   0.000000
     2  F    8.743791   0.000000
 Electronic spatial extent (au):  <R**2>=             30.7770
 Charge=             -0.0000 electrons
 Dipole moment (field-independent basis, Debye):
    X=              0.0000    Y=              0.0000    Z=             -6.5418  Tot=              6.5418
 Quadrupole moment (field-independent basis, Debye-Ang):
   XX=             -7.0409   YY=             -7.0409   ZZ=             -0.6857
   XY=              0.0000   XZ=              0.0000   YZ=              0.0000
 Traceless Quadrupole moment (field-independent basis, Debye-Ang):
   XX=             -2.1184   YY=             -2.1184   ZZ=              4.2368
   XY=              0.0000   XZ=              0.0000   YZ=              0.0000
 Octapole moment (field-independent basis, Debye-Ang**2):
  XXX=              0.0000  YYY=              0.0000  ZZZ=            -12.9182  XYY=              0.0000
  XXY=              0.0000  XXZ=             -1.6511  XZZ=              0.0000  YZZ=              0.0000
  YYZ=             -1.6511  XYZ=              0.0000
 Hexadecapole moment (field-independent basis, Debye-Ang**3):
 XXXX=             -6.1698 YYYY=             -6.1698 ZZZZ=             -5.3654 XXXY=              0.0000
 XXXZ=              0.0000 YYYX=              0.0000 YYYZ=              0.0000 ZZZX=              0.0000
 ZZZY=              0.0000 XXYY=             -2.0566 XXZZ=             -3.3706 YYZZ=             -3.3706
 XXYZ=              0.0000 YYXZ=              0.0000 ZZXY=              0.0000
 N-N= 9.102239086985D+00 E-N=-2.763104770628D+02  KE= 1.069154474554D+02
 Symmetry A1   KE= 9.541232292272D+01
 Symmetry A2   KE=-9.915315167706D-52
 Symmetry B1   KE= 5.751562266357D+00
 Symmetry B2   KE= 5.751562266357D+00
 Symmetry A1   SP= 0.000000000000D+00
 Symmetry A2   SP= 0.000000000000D+00
 Symmetry B1   SP= 0.000000000000D+00
 Symmetry B2   SP= 0.000000000000D+00
     Alpha  MBS Density Matrix:
                           1         2         3         4         5
   1 1   Li 1S          0.99410
   2        2S          0.01610   0.01145
   3        2PX        -0.00000   0.00000   0.03212
   4        2PY         0.00000  -0.00000  -0.00000   0.03212
   5        2PZ        -0.01783   0.01047  -0.00000   0.00000   0.01072
   6 2   F  1S          0.00953  -0.01317   0.00000  -0.00000  -0.01610
   7        2S         -0.03614   0.03709  -0.00000   0.00000   0.04442
   8        2PX        -0.00000   0.00000   0.17216  -0.00000  -0.00000
   9        2PY         0.00000  -0.00000   0.00000   0.17216   0.00000
  10        2PZ         0.06811  -0.09167  -0.00000   0.00000  -0.08686
                           6         7         8         9        10
   6 2   F  1S          1.05692
   7        2S         -0.23640   0.99380
   8        2PX         0.00000  -0.00000   0.92282
   9        2PY        -0.00000   0.00000   0.00000   0.92282
  10        2PZ        -0.01314   0.07749  -0.00000   0.00000   0.95269
     Beta  MBS Density Matrix:
                           1         2         3         4         5
   1 1   Li 1S          0.99410
   2        2S          0.01610   0.01145
   3        2PX        -0.00000   0.00000   0.03212
   4        2PY         0.00000  -0.00000  -0.00000   0.03212
   5        2PZ        -0.01783   0.01047  -0.00000   0.00000   0.01072
   6 2   F  1S          0.00953  -0.01317   0.00000  -0.00000  -0.01610
   7        2S         -0.03614   0.03709  -0.00000   0.00000   0.04442
   8        2PX        -0.00000   0.00000   0.17216  -0.00000  -0.00000
   9        2PY         0.00000  -0.00000   0.00000   0.17216   0.00000
  10        2PZ         0.06811  -0.09167  -0.00000   0.00000  -0.08686
                           6         7         8         9        10
   6 2   F  1S          1.05692
   7        2S         -0.23640   0.99380
   8        2PX         0.00000  -0.00000   0.92282
   9        2PY        -0.00000   0.00000   0.00000   0.92282
  10        2PZ        -0.01314   0.07749  -0.00000   0.00000   0.95269
    Full MBS Mulliken population analysis:
                           1         2         3         4         5
   1 1   Li 1S          1.98820
   2        2S          0.00776   0.02291
   3        2PX         0.00000   0.00000   0.06424
   4        2PY         0.00000   0.00000   0.00000   0.06424
   5        2PZ         0.00000   0.00000   0.00000   0.00000   0.02144
   6 2   F  1S          0.00000  -0.00074   0.00000   0.00000  -0.00155
   7        2S         -0.00205   0.02011   0.00000   0.00000   0.03698
   8        2PX         0.00000   0.00000   0.04506   0.00000   0.00000
   9        2PY         0.00000   0.00000   0.00000   0.04506   0.00000
  10        2PZ        -0.00660   0.01801   0.00000   0.00000   0.02090
                           6         7         8         9        10
   6 2   F  1S          2.11384
   7        2S         -0.11252   1.98761
   8        2PX         0.00000   0.00000   1.84564
   9        2PY         0.00000   0.00000   0.00000   1.84564
  10        2PZ         0.00000   0.00000   0.00000   0.00000   1.90539
     MBS Gross orbital populations:
                         Total     Alpha     Beta      Spin
   1 1   Li 1S          1.98732   0.99366   0.99366   0.00000
   2        2S          0.06805   0.03403   0.03403   0.00000
   3        2PX         0.10930   0.05465   0.05465   0.00000
   4        2PY         0.10930   0.05465   0.05465   0.00000
   5        2PZ         0.07776   0.03888   0.03888   0.00000
   6 2   F  1S          1.99904   0.99952   0.99952   0.00000
   7        2S          1.93013   0.96506   0.96506   0.00000
   8        2PX         1.89070   0.94535   0.94535   0.00000
   9        2PY         1.89070   0.94535   0.94535   0.00000
  10        2PZ         1.93769   0.96885   0.96885   0.00000
          MBS Condensed to atoms (all electrons):
               1          2
     1  Li   2.176546   0.175191
     2  F    0.175191   9.473073
          MBS Atomic-Atomic Spin Densities.
               1          2
     1  Li   0.000000   0.000000
     2  F    0.000000   0.000000
 MBS Mulliken charges and spin densities:
               1          2
     1  Li   0.648263   0.000000
     2  F   -0.648263   0.000000
 Sum of MBS Mulliken charges =  -0.00000   0.00000
 MBS Mulliken charges and spin densities with hydrogens summed into heavy atoms:
               1          2
     1  Li   0.648263   0.000000
     2  F   -0.648263   0.000000
 MBS Atomic Valencies and Mayer Atomic Bond Orders:
               1          2
     1  Li   0.661971   0.661971
     2  F    0.661971   0.661971
 MBS Mayer-style numbers of lone pairs (6.000 valence pairs, 5.338 lone pairs):
               1
     1  Li   0.844883
     2  F    4.493146
 BEBO parameters in MulMin, MxElBE=  0:
 ELP=  0.00000000000     EBEBO=  0.00000000000     Sum=  0.00000000000    
 ELP=  0.00000000000     EBEBO=  0.00000000000     EJK=  0.00000000000      0.00000000000     Sum=  0.00000000000    
 0 EA=  0.00000000000     EB=  0.00000000000     ETot=  0.00000000000    
 1 EA=  0.00000000000     EB=  0.00000000000     ETot=  0.00000000000    
 2 EA=  0.00000000000     EB=  0.00000000000     ETot=  0.00000000000    
 3 EJ=  0.00000000000     EK=  0.00000000000     ETot=  0.00000000000    
 4 EJ=  0.00000000000     EK=  0.00000000000     ETot=  0.00000000000    
 5 EA=  0.00000000000     EB=  0.00000000000     ETot=  0.00000000000    
 Orbital energies and kinetic energies (alpha):
                                 1                 2
   1         O               -26.114814         37.248481
   2         O                -2.438098          3.587812
   3         O                -1.378172          3.871036
   4         O                -0.499500          2.998833
   5         O                -0.476102          2.875781
   6         O                -0.476102          2.875781
   7         V                -0.010499          0.055300
   8         V                 0.015489          0.020515
   9         V                 0.015489          0.020515
  10         V                 0.020628          0.058324
  11         V                 0.028507          0.038631
  12         V                 0.061699          0.112935
  13         V                 0.061699          0.112935
  14         V                 0.088006          0.110578
  15         V                 0.142744          0.306587
  16         V                 0.174029          0.286639
  17         V                 0.174029          0.286639
  18         V                 0.216337          0.362151
  19         V                 0.292411          0.345513
  20         V                 0.292411          0.345513
  21         V                 0.350676          0.586653
  22         V                 0.350676          0.586653
  23         V                 0.360757          0.495946
  24         V                 0.428526          0.579325
  25         V                 0.455573          0.581618
  26         V                 0.455573          0.581618
  27         V                 0.589419          1.121035
  28         V                 0.595241          0.954172
  29         V                 0.595241          0.954172
  30         V                 0.620760          0.675003
  31         V                 0.620760          0.675003
  32         V                 0.627108          0.672603
  33         V                 0.627108          0.672603
  34         V                 0.730710          0.972232
  35         V                 0.786103          0.922811
  36         V                 0.786103          0.922811
  37         V                 0.909793          1.456455
  38         V                 1.323796          1.574302
  39         V                 1.323796          1.574302
  40         V                 1.349875          1.856245
  41         V                 1.349875          1.856245
  42         V                 1.522950          2.338470
  43         V                 1.780717          3.363676
  44         V                 1.780717          3.363676
  45         V                 1.812210          3.649532
  46         V                 2.436673          4.730577
  47         V                 2.540362          3.161684
  48         V                 2.540362          3.161684
  49         V                 2.640783          5.172416
  50         V                 2.780606          3.480589
  51         V                 2.780606          3.480589
  52         V                 4.477538          9.756816
  53         V                 7.118829         15.137738
  54         V                 7.118829         15.137738
  55         V                 7.178030         14.977531
  56         V                 7.314117          8.336497
  57         V                 7.314117          8.336497
  58         V                 7.314641          8.326949
  59         V                 7.314641          8.326949
  60         V                 7.362507          8.612733
  61         V                 7.362507          8.612733
  62         V                 7.390251          8.923658
  63         V                 9.896208         13.759149
  64         V                 9.896208         13.759149
  65         V                10.019578         13.877762
  66         V                10.019578         13.877762
  67         V                10.090802         13.984918
  68         V                68.984807        163.987004
 Total kinetic energy from orbitals= 1.069154474554D+02
                          Isotropic Fermi Contact Couplings
        Atom                 a.u.       MegaHertz       Gauss      10(-4) cm-1
     1  Li(7)              0.00000       0.00000       0.00000       0.00000
     2  F(19)              0.00000       0.00000       0.00000       0.00000
 --------------------------------------------------------
       Center         ----  Spin Dipole Couplings  ----
                      3XX-RR        3YY-RR        3ZZ-RR
 --------------------------------------------------------
     1   Atom        0.000000      0.000000      0.000000
     2   Atom        0.000000      0.000000      0.000000
 --------------------------------------------------------
                        XY            XZ            YZ
 --------------------------------------------------------
     1   Atom        0.000000      0.000000      0.000000
     2   Atom        0.000000      0.000000      0.000000
 --------------------------------------------------------


 ---------------------------------------------------------------------------------
              Anisotropic Spin Dipole Couplings in Principal Axis System
 ---------------------------------------------------------------------------------

       Atom             a.u.   MegaHertz   Gauss  10(-4) cm-1        Axes

              Baa     0.0000     0.000     0.000     0.000  1.0000  0.0000  0.0000
     1 Li(7)  Bbb     0.0000     0.000     0.000     0.000 -0.0000  1.0000  0.0000
              Bcc     0.0000     0.000     0.000     0.000  0.0000  0.0000  1.0000
 
              Baa     0.0000     0.000     0.000     0.000  1.0000  0.0000  0.0000
     2 F(19)  Bbb     0.0000     0.000     0.000     0.000 -0.0000  1.0000  0.0000
              Bcc     0.0000     0.000     0.000     0.000  0.0000  0.0000  1.0000
 

 ---------------------------------------------------------------------------------


 Test job not archived.
 1\1\GINC-SMP-N140\SP\ROHF\CBSB3\F1Li1\BLZ11\29-Jan-2022\0\\# SP ROHF/C
 BSB3 Pop=(Full) scf=tight IOp(6/27=122)\\LiF\\0,1\Li\F,1,1.5697\\Versi
 on=ES64L-G16RevC.01\State=1-SG\HF=-106.9780622\RMSD=2.456e-09\Dipole=0
 .,0.,-2.5737293\Quadrupole=-1.5749766,-1.5749766,3.1499533,0.,0.,0.\PG
 =C*V [C*(Li1F1)]\\@


 The number of Unix installations has grown to 10,
  with more expected.
                  -- The Unix Programmer's Manual,
                     2nd Edition, June, 1972.
 File lengths (MBytes):  RWF=      6 Int=      0 D2E=      0 Chk=      1 Scr=      1
